# vtk DataFile Version 3.0
#This file was generated by the deal.II library on 2024/12/17 at 7:20:15
ASCII
DATASET UNSTRUCTURED_GRID

POINTS 36 double
0 0 0
2.5 0 0
5 0 0
0 2.5 0
2.5 2.5 0
5 2.5 0
0 5 0
2.5 5 0
5 5 0
5 0 0
7.5 0 0
10 0 0
5 2.5 0
7.5 2.5 0
10 2.5 0
5 5 0
7.5 5 0
10 5 0
0 5 0
2.5 5 0
5 5 0
0 7.5 0
2.5 7.5 0
5 7.5 0
0 10 0
2.5 10 0
5 10 0
5 5 0
7.5 5 0
10 5 0
5 7.5 0
7.5 7.5 0
10 7.5 0
5 10 0
7.5 10 0
10 10 0

CELLS 16 80
4	0	1	4	3
4	1	2	5	4
4	3	4	7	6
4	4	5	8	7
4	9	10	13	12
4	10	11	14	13
4	12	13	16	15
4	13	14	17	16
4	18	19	22	21
4	19	20	23	22
4	21	22	25	24
4	22	23	26	25
4	27	28	31	30
4	28	29	32	31
4	30	31	34	33
4	31	32	35	34

CELL_TYPES 16
 9 9 9 9 9 9 9 9 9 9 9 9 9 9 9 9
POINT_DATA 36
SCALARS n double 1
LOOKUP_TABLE default
0 2.5 5 0 2.5 5 0 2.5 5 5 7.5 10 5 7.5 10 5 7.5 10 0 2.5 5 0 2.5 5 0 2.5 5 5 7.5 10 5 7.5 10 5 7.5 10
SCALARS |nx| double 1
LOOKUP_TABLE default
1 1 1 1 1 1 1 1 1 1 1 1 1 1 1 1 1 1 1 1 1 1 1 1 1 1 1 1 1 1 1 1 1 1 1 1
