# vtk DataFile Version 2.0
converted output from 20_grain_2D_RL.vtk
ASCII
DATASET UNSTRUCTURED_GRID

POINTS 16384 double
0.0 0.0 0.0
0.5 0.0 0.0
0.0 0.5 0.0
0.5 0.5 0.0
0.5 0.0 0.0
1.0 0.0 0.0
0.5 0.5 0.0
1.0 0.5 0.0
1.0 0.0 0.0
1.5 0.0 0.0
1.0 0.5 0.0
1.5 0.5 0.0
1.5 0.0 0.0
2.0 0.0 0.0
1.5 0.5 0.0
2.0 0.5 0.0
2.0 0.0 0.0
2.5 0.0 0.0
2.0 0.5 0.0
2.5 0.5 0.0
2.5 0.0 0.0
3.0 0.0 0.0
2.5 0.5 0.0
3.0 0.5 0.0
3.0 0.0 0.0
3.5 0.0 0.0
3.0 0.5 0.0
3.5 0.5 0.0
3.5 0.0 0.0
4.0 0.0 0.0
3.5 0.5 0.0
4.0 0.5 0.0
4.0 0.0 0.0
4.5 0.0 0.0
4.0 0.5 0.0
4.5 0.5 0.0
4.5 0.0 0.0
5.0 0.0 0.0
4.5 0.5 0.0
5.0 0.5 0.0
5.0 0.0 0.0
5.5 0.0 0.0
5.0 0.5 0.0
5.5 0.5 0.0
5.5 0.0 0.0
6.0 0.0 0.0
5.5 0.5 0.0
6.0 0.5 0.0
6.0 0.0 0.0
6.5 0.0 0.0
6.0 0.5 0.0
6.5 0.5 0.0
6.5 0.0 0.0
7.0 0.0 0.0
6.5 0.5 0.0
7.0 0.5 0.0
7.0 0.0 0.0
7.5 0.0 0.0
7.0 0.5 0.0
7.5 0.5 0.0
7.5 0.0 0.0
8.0 0.0 0.0
7.5 0.5 0.0
8.0 0.5 0.0
8.0 0.0 0.0
8.5 0.0 0.0
8.0 0.5 0.0
8.5 0.5 0.0
8.5 0.0 0.0
9.0 0.0 0.0
8.5 0.5 0.0
9.0 0.5 0.0
9.0 0.0 0.0
9.5 0.0 0.0
9.0 0.5 0.0
9.5 0.5 0.0
9.5 0.0 0.0
10.0 0.0 0.0
9.5 0.5 0.0
10.0 0.5 0.0
10.0 0.0 0.0
10.5 0.0 0.0
10.0 0.5 0.0
10.5 0.5 0.0
10.5 0.0 0.0
11.0 0.0 0.0
10.5 0.5 0.0
11.0 0.5 0.0
11.0 0.0 0.0
11.5 0.0 0.0
11.0 0.5 0.0
11.5 0.5 0.0
11.5 0.0 0.0
12.0 0.0 0.0
11.5 0.5 0.0
12.0 0.5 0.0
12.0 0.0 0.0
12.5 0.0 0.0
12.0 0.5 0.0
12.5 0.5 0.0
12.5 0.0 0.0
13.0 0.0 0.0
12.5 0.5 0.0
13.0 0.5 0.0
13.0 0.0 0.0
13.5 0.0 0.0
13.0 0.5 0.0
13.5 0.5 0.0
13.5 0.0 0.0
14.0 0.0 0.0
13.5 0.5 0.0
14.0 0.5 0.0
14.0 0.0 0.0
14.5 0.0 0.0
14.0 0.5 0.0
14.5 0.5 0.0
14.5 0.0 0.0
15.0 0.0 0.0
14.5 0.5 0.0
15.0 0.5 0.0
15.0 0.0 0.0
15.5 0.0 0.0
15.0 0.5 0.0
15.5 0.5 0.0
15.5 0.0 0.0
16.0 0.0 0.0
15.5 0.5 0.0
16.0 0.5 0.0
16.0 0.0 0.0
16.5 0.0 0.0
16.0 0.5 0.0
16.5 0.5 0.0
16.5 0.0 0.0
17.0 0.0 0.0
16.5 0.5 0.0
17.0 0.5 0.0
17.0 0.0 0.0
17.5 0.0 0.0
17.0 0.5 0.0
17.5 0.5 0.0
17.5 0.0 0.0
18.0 0.0 0.0
17.5 0.5 0.0
18.0 0.5 0.0
18.0 0.0 0.0
18.5 0.0 0.0
18.0 0.5 0.0
18.5 0.5 0.0
18.5 0.0 0.0
19.0 0.0 0.0
18.5 0.5 0.0
19.0 0.5 0.0
19.0 0.0 0.0
19.5 0.0 0.0
19.0 0.5 0.0
19.5 0.5 0.0
19.5 0.0 0.0
20.0 0.0 0.0
19.5 0.5 0.0
20.0 0.5 0.0
20.0 0.0 0.0
20.5 0.0 0.0
20.0 0.5 0.0
20.5 0.5 0.0
20.5 0.0 0.0
21.0 0.0 0.0
20.5 0.5 0.0
21.0 0.5 0.0
21.0 0.0 0.0
21.5 0.0 0.0
21.0 0.5 0.0
21.5 0.5 0.0
21.5 0.0 0.0
22.0 0.0 0.0
21.5 0.5 0.0
22.0 0.5 0.0
22.0 0.0 0.0
22.5 0.0 0.0
22.0 0.5 0.0
22.5 0.5 0.0
22.5 0.0 0.0
23.0 0.0 0.0
22.5 0.5 0.0
23.0 0.5 0.0
23.0 0.0 0.0
23.5 0.0 0.0
23.0 0.5 0.0
23.5 0.5 0.0
23.5 0.0 0.0
24.0 0.0 0.0
23.5 0.5 0.0
24.0 0.5 0.0
24.0 0.0 0.0
24.5 0.0 0.0
24.0 0.5 0.0
24.5 0.5 0.0
24.5 0.0 0.0
25.0 0.0 0.0
24.5 0.5 0.0
25.0 0.5 0.0
25.0 0.0 0.0
25.5 0.0 0.0
25.0 0.5 0.0
25.5 0.5 0.0
25.5 0.0 0.0
26.0 0.0 0.0
25.5 0.5 0.0
26.0 0.5 0.0
26.0 0.0 0.0
26.5 0.0 0.0
26.0 0.5 0.0
26.5 0.5 0.0
26.5 0.0 0.0
27.0 0.0 0.0
26.5 0.5 0.0
27.0 0.5 0.0
27.0 0.0 0.0
27.5 0.0 0.0
27.0 0.5 0.0
27.5 0.5 0.0
27.5 0.0 0.0
28.0 0.0 0.0
27.5 0.5 0.0
28.0 0.5 0.0
28.0 0.0 0.0
28.5 0.0 0.0
28.0 0.5 0.0
28.5 0.5 0.0
28.5 0.0 0.0
29.0 0.0 0.0
28.5 0.5 0.0
29.0 0.5 0.0
29.0 0.0 0.0
29.5 0.0 0.0
29.0 0.5 0.0
29.5 0.5 0.0
29.5 0.0 0.0
30.0 0.0 0.0
29.5 0.5 0.0
30.0 0.5 0.0
30.0 0.0 0.0
30.5 0.0 0.0
30.0 0.5 0.0
30.5 0.5 0.0
30.5 0.0 0.0
31.0 0.0 0.0
30.5 0.5 0.0
31.0 0.5 0.0
31.0 0.0 0.0
31.5 0.0 0.0
31.0 0.5 0.0
31.5 0.5 0.0
31.5 0.0 0.0
32.0 0.0 0.0
31.5 0.5 0.0
32.0 0.5 0.0
0.0 0.5 0.0
0.5 0.5 0.0
0.0 1.0 0.0
0.5 1.0 0.0
0.5 0.5 0.0
1.0 0.5 0.0
0.5 1.0 0.0
1.0 1.0 0.0
1.0 0.5 0.0
1.5 0.5 0.0
1.0 1.0 0.0
1.5 1.0 0.0
1.5 0.5 0.0
2.0 0.5 0.0
1.5 1.0 0.0
2.0 1.0 0.0
2.0 0.5 0.0
2.5 0.5 0.0
2.0 1.0 0.0
2.5 1.0 0.0
2.5 0.5 0.0
3.0 0.5 0.0
2.5 1.0 0.0
3.0 1.0 0.0
3.0 0.5 0.0
3.5 0.5 0.0
3.0 1.0 0.0
3.5 1.0 0.0
3.5 0.5 0.0
4.0 0.5 0.0
3.5 1.0 0.0
4.0 1.0 0.0
4.0 0.5 0.0
4.5 0.5 0.0
4.0 1.0 0.0
4.5 1.0 0.0
4.5 0.5 0.0
5.0 0.5 0.0
4.5 1.0 0.0
5.0 1.0 0.0
5.0 0.5 0.0
5.5 0.5 0.0
5.0 1.0 0.0
5.5 1.0 0.0
5.5 0.5 0.0
6.0 0.5 0.0
5.5 1.0 0.0
6.0 1.0 0.0
6.0 0.5 0.0
6.5 0.5 0.0
6.0 1.0 0.0
6.5 1.0 0.0
6.5 0.5 0.0
7.0 0.5 0.0
6.5 1.0 0.0
7.0 1.0 0.0
7.0 0.5 0.0
7.5 0.5 0.0
7.0 1.0 0.0
7.5 1.0 0.0
7.5 0.5 0.0
8.0 0.5 0.0
7.5 1.0 0.0
8.0 1.0 0.0
8.0 0.5 0.0
8.5 0.5 0.0
8.0 1.0 0.0
8.5 1.0 0.0
8.5 0.5 0.0
9.0 0.5 0.0
8.5 1.0 0.0
9.0 1.0 0.0
9.0 0.5 0.0
9.5 0.5 0.0
9.0 1.0 0.0
9.5 1.0 0.0
9.5 0.5 0.0
10.0 0.5 0.0
9.5 1.0 0.0
10.0 1.0 0.0
10.0 0.5 0.0
10.5 0.5 0.0
10.0 1.0 0.0
10.5 1.0 0.0
10.5 0.5 0.0
11.0 0.5 0.0
10.5 1.0 0.0
11.0 1.0 0.0
11.0 0.5 0.0
11.5 0.5 0.0
11.0 1.0 0.0
11.5 1.0 0.0
11.5 0.5 0.0
12.0 0.5 0.0
11.5 1.0 0.0
12.0 1.0 0.0
12.0 0.5 0.0
12.5 0.5 0.0
12.0 1.0 0.0
12.5 1.0 0.0
12.5 0.5 0.0
13.0 0.5 0.0
12.5 1.0 0.0
13.0 1.0 0.0
13.0 0.5 0.0
13.5 0.5 0.0
13.0 1.0 0.0
13.5 1.0 0.0
13.5 0.5 0.0
14.0 0.5 0.0
13.5 1.0 0.0
14.0 1.0 0.0
14.0 0.5 0.0
14.5 0.5 0.0
14.0 1.0 0.0
14.5 1.0 0.0
14.5 0.5 0.0
15.0 0.5 0.0
14.5 1.0 0.0
15.0 1.0 0.0
15.0 0.5 0.0
15.5 0.5 0.0
15.0 1.0 0.0
15.5 1.0 0.0
15.5 0.5 0.0
16.0 0.5 0.0
15.5 1.0 0.0
16.0 1.0 0.0
16.0 0.5 0.0
16.5 0.5 0.0
16.0 1.0 0.0
16.5 1.0 0.0
16.5 0.5 0.0
17.0 0.5 0.0
16.5 1.0 0.0
17.0 1.0 0.0
17.0 0.5 0.0
17.5 0.5 0.0
17.0 1.0 0.0
17.5 1.0 0.0
17.5 0.5 0.0
18.0 0.5 0.0
17.5 1.0 0.0
18.0 1.0 0.0
18.0 0.5 0.0
18.5 0.5 0.0
18.0 1.0 0.0
18.5 1.0 0.0
18.5 0.5 0.0
19.0 0.5 0.0
18.5 1.0 0.0
19.0 1.0 0.0
19.0 0.5 0.0
19.5 0.5 0.0
19.0 1.0 0.0
19.5 1.0 0.0
19.5 0.5 0.0
20.0 0.5 0.0
19.5 1.0 0.0
20.0 1.0 0.0
20.0 0.5 0.0
20.5 0.5 0.0
20.0 1.0 0.0
20.5 1.0 0.0
20.5 0.5 0.0
21.0 0.5 0.0
20.5 1.0 0.0
21.0 1.0 0.0
21.0 0.5 0.0
21.5 0.5 0.0
21.0 1.0 0.0
21.5 1.0 0.0
21.5 0.5 0.0
22.0 0.5 0.0
21.5 1.0 0.0
22.0 1.0 0.0
22.0 0.5 0.0
22.5 0.5 0.0
22.0 1.0 0.0
22.5 1.0 0.0
22.5 0.5 0.0
23.0 0.5 0.0
22.5 1.0 0.0
23.0 1.0 0.0
23.0 0.5 0.0
23.5 0.5 0.0
23.0 1.0 0.0
23.5 1.0 0.0
23.5 0.5 0.0
24.0 0.5 0.0
23.5 1.0 0.0
24.0 1.0 0.0
24.0 0.5 0.0
24.5 0.5 0.0
24.0 1.0 0.0
24.5 1.0 0.0
24.5 0.5 0.0
25.0 0.5 0.0
24.5 1.0 0.0
25.0 1.0 0.0
25.0 0.5 0.0
25.5 0.5 0.0
25.0 1.0 0.0
25.5 1.0 0.0
25.5 0.5 0.0
26.0 0.5 0.0
25.5 1.0 0.0
26.0 1.0 0.0
26.0 0.5 0.0
26.5 0.5 0.0
26.0 1.0 0.0
26.5 1.0 0.0
26.5 0.5 0.0
27.0 0.5 0.0
26.5 1.0 0.0
27.0 1.0 0.0
27.0 0.5 0.0
27.5 0.5 0.0
27.0 1.0 0.0
27.5 1.0 0.0
27.5 0.5 0.0
28.0 0.5 0.0
27.5 1.0 0.0
28.0 1.0 0.0
28.0 0.5 0.0
28.5 0.5 0.0
28.0 1.0 0.0
28.5 1.0 0.0
28.5 0.5 0.0
29.0 0.5 0.0
28.5 1.0 0.0
29.0 1.0 0.0
29.0 0.5 0.0
29.5 0.5 0.0
29.0 1.0 0.0
29.5 1.0 0.0
29.5 0.5 0.0
30.0 0.5 0.0
29.5 1.0 0.0
30.0 1.0 0.0
30.0 0.5 0.0
30.5 0.5 0.0
30.0 1.0 0.0
30.5 1.0 0.0
30.5 0.5 0.0
31.0 0.5 0.0
30.5 1.0 0.0
31.0 1.0 0.0
31.0 0.5 0.0
31.5 0.5 0.0
31.0 1.0 0.0
31.5 1.0 0.0
31.5 0.5 0.0
32.0 0.5 0.0
31.5 1.0 0.0
32.0 1.0 0.0
0.0 1.0 0.0
0.5 1.0 0.0
0.0 1.5 0.0
0.5 1.5 0.0
0.5 1.0 0.0
1.0 1.0 0.0
0.5 1.5 0.0
1.0 1.5 0.0
1.0 1.0 0.0
1.5 1.0 0.0
1.0 1.5 0.0
1.5 1.5 0.0
1.5 1.0 0.0
2.0 1.0 0.0
1.5 1.5 0.0
2.0 1.5 0.0
2.0 1.0 0.0
2.5 1.0 0.0
2.0 1.5 0.0
2.5 1.5 0.0
2.5 1.0 0.0
3.0 1.0 0.0
2.5 1.5 0.0
3.0 1.5 0.0
3.0 1.0 0.0
3.5 1.0 0.0
3.0 1.5 0.0
3.5 1.5 0.0
3.5 1.0 0.0
4.0 1.0 0.0
3.5 1.5 0.0
4.0 1.5 0.0
4.0 1.0 0.0
4.5 1.0 0.0
4.0 1.5 0.0
4.5 1.5 0.0
4.5 1.0 0.0
5.0 1.0 0.0
4.5 1.5 0.0
5.0 1.5 0.0
5.0 1.0 0.0
5.5 1.0 0.0
5.0 1.5 0.0
5.5 1.5 0.0
5.5 1.0 0.0
6.0 1.0 0.0
5.5 1.5 0.0
6.0 1.5 0.0
6.0 1.0 0.0
6.5 1.0 0.0
6.0 1.5 0.0
6.5 1.5 0.0
6.5 1.0 0.0
7.0 1.0 0.0
6.5 1.5 0.0
7.0 1.5 0.0
7.0 1.0 0.0
7.5 1.0 0.0
7.0 1.5 0.0
7.5 1.5 0.0
7.5 1.0 0.0
8.0 1.0 0.0
7.5 1.5 0.0
8.0 1.5 0.0
8.0 1.0 0.0
8.5 1.0 0.0
8.0 1.5 0.0
8.5 1.5 0.0
8.5 1.0 0.0
9.0 1.0 0.0
8.5 1.5 0.0
9.0 1.5 0.0
9.0 1.0 0.0
9.5 1.0 0.0
9.0 1.5 0.0
9.5 1.5 0.0
9.5 1.0 0.0
10.0 1.0 0.0
9.5 1.5 0.0
10.0 1.5 0.0
10.0 1.0 0.0
10.5 1.0 0.0
10.0 1.5 0.0
10.5 1.5 0.0
10.5 1.0 0.0
11.0 1.0 0.0
10.5 1.5 0.0
11.0 1.5 0.0
11.0 1.0 0.0
11.5 1.0 0.0
11.0 1.5 0.0
11.5 1.5 0.0
11.5 1.0 0.0
12.0 1.0 0.0
11.5 1.5 0.0
12.0 1.5 0.0
12.0 1.0 0.0
12.5 1.0 0.0
12.0 1.5 0.0
12.5 1.5 0.0
12.5 1.0 0.0
13.0 1.0 0.0
12.5 1.5 0.0
13.0 1.5 0.0
13.0 1.0 0.0
13.5 1.0 0.0
13.0 1.5 0.0
13.5 1.5 0.0
13.5 1.0 0.0
14.0 1.0 0.0
13.5 1.5 0.0
14.0 1.5 0.0
14.0 1.0 0.0
14.5 1.0 0.0
14.0 1.5 0.0
14.5 1.5 0.0
14.5 1.0 0.0
15.0 1.0 0.0
14.5 1.5 0.0
15.0 1.5 0.0
15.0 1.0 0.0
15.5 1.0 0.0
15.0 1.5 0.0
15.5 1.5 0.0
15.5 1.0 0.0
16.0 1.0 0.0
15.5 1.5 0.0
16.0 1.5 0.0
16.0 1.0 0.0
16.5 1.0 0.0
16.0 1.5 0.0
16.5 1.5 0.0
16.5 1.0 0.0
17.0 1.0 0.0
16.5 1.5 0.0
17.0 1.5 0.0
17.0 1.0 0.0
17.5 1.0 0.0
17.0 1.5 0.0
17.5 1.5 0.0
17.5 1.0 0.0
18.0 1.0 0.0
17.5 1.5 0.0
18.0 1.5 0.0
18.0 1.0 0.0
18.5 1.0 0.0
18.0 1.5 0.0
18.5 1.5 0.0
18.5 1.0 0.0
19.0 1.0 0.0
18.5 1.5 0.0
19.0 1.5 0.0
19.0 1.0 0.0
19.5 1.0 0.0
19.0 1.5 0.0
19.5 1.5 0.0
19.5 1.0 0.0
20.0 1.0 0.0
19.5 1.5 0.0
20.0 1.5 0.0
20.0 1.0 0.0
20.5 1.0 0.0
20.0 1.5 0.0
20.5 1.5 0.0
20.5 1.0 0.0
21.0 1.0 0.0
20.5 1.5 0.0
21.0 1.5 0.0
21.0 1.0 0.0
21.5 1.0 0.0
21.0 1.5 0.0
21.5 1.5 0.0
21.5 1.0 0.0
22.0 1.0 0.0
21.5 1.5 0.0
22.0 1.5 0.0
22.0 1.0 0.0
22.5 1.0 0.0
22.0 1.5 0.0
22.5 1.5 0.0
22.5 1.0 0.0
23.0 1.0 0.0
22.5 1.5 0.0
23.0 1.5 0.0
23.0 1.0 0.0
23.5 1.0 0.0
23.0 1.5 0.0
23.5 1.5 0.0
23.5 1.0 0.0
24.0 1.0 0.0
23.5 1.5 0.0
24.0 1.5 0.0
24.0 1.0 0.0
24.5 1.0 0.0
24.0 1.5 0.0
24.5 1.5 0.0
24.5 1.0 0.0
25.0 1.0 0.0
24.5 1.5 0.0
25.0 1.5 0.0
25.0 1.0 0.0
25.5 1.0 0.0
25.0 1.5 0.0
25.5 1.5 0.0
25.5 1.0 0.0
26.0 1.0 0.0
25.5 1.5 0.0
26.0 1.5 0.0
26.0 1.0 0.0
26.5 1.0 0.0
26.0 1.5 0.0
26.5 1.5 0.0
26.5 1.0 0.0
27.0 1.0 0.0
26.5 1.5 0.0
27.0 1.5 0.0
27.0 1.0 0.0
27.5 1.0 0.0
27.0 1.5 0.0
27.5 1.5 0.0
27.5 1.0 0.0
28.0 1.0 0.0
27.5 1.5 0.0
28.0 1.5 0.0
28.0 1.0 0.0
28.5 1.0 0.0
28.0 1.5 0.0
28.5 1.5 0.0
28.5 1.0 0.0
29.0 1.0 0.0
28.5 1.5 0.0
29.0 1.5 0.0
29.0 1.0 0.0
29.5 1.0 0.0
29.0 1.5 0.0
29.5 1.5 0.0
29.5 1.0 0.0
30.0 1.0 0.0
29.5 1.5 0.0
30.0 1.5 0.0
30.0 1.0 0.0
30.5 1.0 0.0
30.0 1.5 0.0
30.5 1.5 0.0
30.5 1.0 0.0
31.0 1.0 0.0
30.5 1.5 0.0
31.0 1.5 0.0
31.0 1.0 0.0
31.5 1.0 0.0
31.0 1.5 0.0
31.5 1.5 0.0
31.5 1.0 0.0
32.0 1.0 0.0
31.5 1.5 0.0
32.0 1.5 0.0
0.0 1.5 0.0
0.5 1.5 0.0
0.0 2.0 0.0
0.5 2.0 0.0
0.5 1.5 0.0
1.0 1.5 0.0
0.5 2.0 0.0
1.0 2.0 0.0
1.0 1.5 0.0
1.5 1.5 0.0
[...]
POINT_DATA 16384
SCALARS FeatureIds double 1
LOOKUP_TABLE default
3 3 3 3 3 3 3 3 3 3 3 3 3 3 3 3 3 3 3 3 3 3 3 3 3 3 3 3 3 3 3 3 3 3 3 3 3 3 3 3 3 3 3 3 3 3 3 3 3 17 3 17 17 17 17 17 17 17 17 17 17 17 17 17 17 17 17 17 17 17 17 17 17 17 17 17 17 17 17 17 17 17 17 17 17 17 17 17 17 17 17 17 17 17 17 17 17 17 17 17 17 19 17 19 19 19 19 19 19 19 19 19 19 19 19 19 19 19 19 19 19 19 19 19 19 19 19 19 19 19 19 19 19 19 19 19 19 19 19 19 19 19 19 19 19 19 19 19 19 19 19 19 19 4 19 4 4 4 4 4 4 4 4 4 4 4 4 4 4 4 4 4 4 4 4 4 4 4 4 4 4 4 4 4 4 4 4 4 4 4 4 4 4 4 4 4 4 2 4 4 2 2 4 2 2 2 2 2 2 2 2 2 2 2 2 2 2 2 2 2 2 2 2 2 2 2 2 2 2 2 2 2 2 2 2 2 2 2 2 2 2 2 2 2 2 2 2 2 2 2 2 2 2 2 2 2 3 3 3 3 3 3 3 3 3 3 3 3 3 3 3 3 3 3 3 3 3 3 3 3 3 3 3 3 3 3 3 3 3 3 3 3 3 3 3 3 3 3 3 3 3 3 3 3 3 17 3 17 17 17 17 17 17 17 17 17 17 17 17 17 17 17 17 17 17 17 17 17 17 17 17 17 17 17 17 17 17 17 17 17 17 17 17 17 17 17 17 17 17 17 17 17 17 17 17 17 17 19 17 19 19 19 19 19 19 19 19 19 19 19 19 19 19 19 19 19 19 19 19 19 19 19 19 19 19 19 19 19 19 19 19 19 19 19 19 19 19 19 19 19 19 19 19 19 19 19 19 19 19 4 19 4 4 4 4 4 4 4 4 4 4 4 4 4 4 4 4 4 4 4 4 4 4 4 4 4 4 4 4 4 4 4 4 4 4 4 4 4 4 4 4 4 4 4 4 4 4 2 4 4 2 2 4 2 2 2 2 2 2 2 2 2 2 2 2 2 2 2 2 2 2 2 2 2 2 2 2 2 2 2 2 2 2 2 2 2 2 2 2 2 2 2 2 2 2 2 2 2 2 2 2 2 3 3 3 3 3 3 3 3 3 3 3 3 3 3 3 3 3 3 3 3 3 3 3 3 3 3 3 3 3 3 3 3 3 3 3 3 3 3 3 3 3 3 3 3 3 3 3 3 3 17 3 17 17 17 17 17 17 17 17 17 17 17 17 17 17 17 17 17 17 17 17 17 17 17 17 17 17 17 17 17 17 17 17 17 17 17 17 17 17 17 17 17 17 17 17 17 17 17 17 17 17 19 17 19 19 19 19 19 19 19 19 19 19 19 19 19 19 19 19 19 19 19 19 19 19 19 19 19 19 19 19 19 19 19 19 19 19 19 19 19 19 19 19 19 19 19 19 19 19 19 19 19 19 4 19 4 4 4 4 4 4 4 4 4 4 4 4 4 4 4 4 4 4 4 4 4 4 4 4 4 4 4 4 4 4 4 4 4 4 4 4 4 4 4 4 4 4 4 4 4 4 4 4 4 4 2 4 4 2 2 4 2 2 2 2 2 2 2 2 2 2 2 2 2 2 2 2 2 2 2 2 2 2 2 2 2 2 2 2 2 2 2 2 2 2 2 2 2 2 2 2 2 2 2 2 2 3 3 3 3 3 3 3 3 3 3 3 3 3 3 3 3 3 3 3 3 3 3 3 3 3 3 3 3 3 3 3 3 3 3 3 3 3 3 3 3 3 3 3 3 3 3 3 17 3 17 17 17 17 17 17 17 17 17 17 17 17 17 17 17 17 17 17 17 17 17 17 17 17 17 17 17 17 17 17 17 17 17 17 17 17 17 17 17 17 17 17 17 17 17 17 17 17 17 17 17 17 19 17 19 19 19 19 19 19 19 19 19 19 19 19 19 19 19 19 19 19 19 19 19 19 19 19 19 19 19 19 19 19 19 19 19 19 19 19 19 19 19 19 19 19 19 19 19 19 19 19 19 19 4 19 4 4 4 4 4 4 4 4 4 4 4 4 4 4 4 4 4 4 4 4 4 4 4 4 4 4 4 4 4 4 4 4 4 4 4 4 4 4 4 4 4 4 4 4 4 4 4 4 4 4 4 4 4 4 2 4 2 2 2 2 2 2 2 2 2 2 2 2 2 2 2 2 2 2 2 2 2 2 2 2 2 2 2 2 2 2 2 2 2 2 2 2 2 2 2 2 2 2 2 2 2 3 3 3 3 3 3 3 3 3 3 3 3 3 3 3 3 3 3 3 3 3 3 3 3 3 3 3 3 3 3 3 3 3 3 3 3 3 3 3 3 3 3 3 17 3 17 17 17 17 17 17 17 17 17 17 17 17 17 17 17 17 17 17 17 17 17 17 17 17 17 17 17 17 17 17 17 17 17 17 17 17 17 17 17 17 17 17 17 17 17 17 17 17 17 17 17 17 17 17 17 17 19 17 19 19 19 19 19 19 19 19 19 19 19 19 19 19 19 19 19 19 19 19 19 19 19 19 19 19 19 19 19 19 19 19 19 19 19 19 19 19 19 19 19 19 19 19 19 19 19 19 19 19 4 19 19 4 4 19 4 4 4 4 4 4 4 4 4 4 4 4 4 4 4 4 4 4 4 4 4 4 4 4 4 4 4 4 4 4 4 4 4 4 4 4 4 4 4 4 4 4 4 4 4 4 4 4 4 4 2 4 4 2 2 4 2 2 2 2 2 2 2 2 2 2 2 2 2 2 2 2 2 2 2 2 2 2 2 2 2 2 2 2 2 2 2 2 2 2 2 2 2 2 2 2 2 3 3 13 13 3 3 13 13 3 3 13 13 3 3 13 3 3 3 3 3 3 3 3 3 3 3 3 3 3 3 3 3 3 3 3 3 3 3 3 17 3 17 17 17 17 17 17 17 17 17 17 17 17 17 17 17 17 17 17 17 17 17 17 17 17 17 17 17 17 17 17 17 17 17 17 17 17 17 17 17 17 17 17 17 17 17 17 17 17 17 17 17 17 17 17 17 17 17 17 17 17 19 17 19 19 19 19 19 19 19 19 19 19 19 19 19 19 19 19 19 19 19 19 19 19 19 19 19 19 19 19 19 19 19 19 19 19 19 19 19 19 19 19 19 19 19 19 19 19 19 19 19 19 19 19 19 19 4 19 4 4 4 4 4 4 4 4 4 4 4 4 4 4 4 4 4 4 4 4 4 4 4 4 4 4 4 4 4 4 4 4 4 4 4 4 4 4 4 4 4 4 4 4 4 4 4 4 4 4 4 4 4 4 2 4 2 2 2 2 2 2 2 2 2 2 2 2 16 2 2 16 16 2 2 16 16 2 2 16 16 2 2 16 16 2 2 16 16 2 2 16 16 2 2 16 16 13 13 13 13 13 13 13 13 13 13 13 13 13 3 13 13 3 3 13 13 3 3 13 3 3 3 3 3 3 3 3 3 3 3 3 3 3 17 3 17 17 17 17 17 17 17 17 17 17 17 17 17 17 17 17 17 17 17 17 17 17 17 17 17 17 17 17 17 17 17 17 17 17 17 17 17 17 17 17 17 17 17 17 17 17 17 17 17 17 17 17 17 17 17 17 17 17 17 17 17 17 19 17 19 19 19 19 19 19 19 19 19 19 19 19 19 19 19 19 19 19 19 19 19 19 19 19 19 19 19 19 19 19 19 19 19 19 19 19 19 19 19 19 19 19 19 19 19 19 19 19 19 19 19 19 19 19 4 19 19 4 4 19 4 4 4 4 4 4 4 4 4 4 4 4 4 4 4 4 4 4 4 4 4 4 4 4 4 4 4 4 4 4 4 4 4 4 4 4 4 4 4 4 4 4 4 4 4 4 4 4 4 4 2 4 2 2 2 2 16 2 2 16 16 2 16 16 16 16 16 16 16 16 16 16 16 16 16 16 16 16 16 16 16 16 16 16 16 16 16 16 16 16 16 16 16 13 13 13 13 13 13 13 13 13 13 13 13 13 13 13 13 13 13 13 13 13 3 13 13 3 3 13 13 3 3 13 13 3 3 13 13 3 17 13 17 17 17 17 17 17 17 17 17 17 17 17 17 17 17 17 17 17 17 17 17 17 17 17 17 17 17 17 17 17 17 17 17 17 17 17 17 17 17 17 17 17 17 17 17 17 17 17 17 17 17 17 17 17 17 17 17 17 17 17 17 17 19 17 19 19 19 19 19 19 19 19 19 19 19 19 19 19 19 19 19 19 19 19 19 19 19 19 19 19 19 19 19 19 19 19 19 19 19 19 19 19 19 19 19 19 19 19 19 19 19 19 19 19 19 19 19 19 19 19 19 19 4 19 12 4 4 12 12 4 4 12 12 4 4 12 12 4 4 12 12 4 4 12 12 4 4 12 12 4 4 12 4 4 4 4 4 4 4 4 4 4 4 4 4 4 4 4 4 4 4 4 4 4 2 4 16 2 16 16 16 16 16 16 16 16 16 16 16 16 16 16 16 16 16 16 16 16 16 16 16 16 16 16 16 16 16 16 16 16 16 16 16 16 16 16 16 13 13 13 13 13 13 13 13 13 13 13 13 13 13 13 13 13 13 13 13 13 13 13 13 13 13 13 13 13 13 13 13 13 13 13 13 13 17 13 17 17 17 17 17 17 17 17 17 17 17 17 17 17 17 17 17 17 17 17 17 17 17 17 17 17 17 17 17 17 17 17 17 17 17 17 17 17 17 17 17 17 17 17 17 17 17 17 9 17 17 9 9 17 17 9 9 17 17 9 9 17 19 9 19 19 19 19 19 19 19 19 19 19 19 19 19 19 19 19 19 19 19 19 19 19 19 19 19 19 19 19 19 19 19 19 19 19 19 19 19 19 19 19 19 19 19 19 19 19 19 19 19 19 19 19 19 19 19 19 19 19 12 19 12 12 12 12 12 12 12 12 12 12 12 12 12 12 12 12 12 12 12 12 12 12 12 12 12 12 4 12 12 4 4 12 12 4 4 12 12 4 4 12 4 4 4 4 4 4 4 4 16 4 16 16 16 16 16 16 16 16 16 16 16 16 16 16 16 16 16 16 16 16 16 16 16 16 16 16 16 16 16 16 16 16 16 16 16 16 16 16 16 16 16 16 16 13 13 13 13 13 13 13 13 13 13 13 13 13 13 13 13 13 13 13 13 13 13 13 13 13 13 13 13 13 13 13 13 13 13 13 13 13 17 13 8 17 17 8 17 17 17 17 17 17 17 17 17 17 17 17 17 17 17 17 17 17 17 17 17 17 17 17 17 17 17 17 17 17 17 17 17 17 17 17 9 17 17 9 9 17 9 9 9 9 9 9 9 9 9 9 9 9 9 9 9 9 19 9 19 19 19 19 19 19 19 19 19 19 19 19 19 19 19 19 19 19 19 19 19 19 19 19 19 19 19 19 19 19 19 19 19 19 19 19 19 19 19 19 19 19 19 19 19 19 19 19 19 19 19 19 19 19 19 19 19 19 12 19 12 12 12 12 12 12 12 12 12 12 12 12 12 12 12 12 12 12 12 12 12 12 12 12 12 12 12 12 12 12 12 12 12 12 12 12 12 12 4 12 12 4 4 12 12 4 16 12 16 16 16 16 16 16 16 16 16 16 16 16 16 16 16 16 16 16 16 16 16 16 16 16 16 16 16 16 16 16 16 16 16 16 16 16 16 16 16 16 16 16 16 16 16 13 13 13 13 13 13 13 13 13 13 13 13 13 13 13 13 13 13 13 13 13 13 13 13 13 13 13 13 13 13 13 13 13 13 13 13 13 8 13 8 8 17 8 8 17 17 8 17 17 17 17 17 17 17 17 17 17 17 17 17 17 17 17 17 17 17 17 17 17 17 17 17 17 17 17 9 17 9 9 9 9 9 9 9 9 9 9 9 9 9 9 9 9 9 9 9 9 9 9 9 9 19 9 19 19 19 19 19 19 19 19 19 19 19 19 19 19 19 19 19 19 19 19 19 19 19 19 19 19 19 19 19 19 19 19 19 19 19 19 19 19 19 19 19 19 19 19 19 19 19 19 19 19 19 19 19 19 19 19 19 19 12 19 12 12 12 12 12 12 12 12 12 12 12 12 12 12 12 12 12 12 12 12 12 12 12 12 12 12 12 12 12 12 12 12 12 12 12 12 12 12 12 12 12 12 12 12 12 12 16 12 16 16 16 16 16 16 16 16 16 16 16 16 16 16 16 16 16 16 16 16 16 16 16 16 16 16 16 16 16 16 16 16 16 16 16 16 16 16 16 16 16 16 16 16 16 13 13 13 13 13 13 13 13 13 13 13 13 13 13 13 13 13 13 13 13 13 13 13 13 13 13 13 13 13 13 13 13 13 13 13 8 13 8 8 8 8 8 8 8 8 17 8 8 17 17 8 17 17 17 17 17 17 17 17 17 17 17 17 17 17 17 17 17 17 17 17 9 17 9 9 9 9 9 9 9 9 9 9 9 9 9 9 9 9 9 9 9 9 9 9 9 9 9 9 9 9 19 9 9 19 19 9 19 19 19 19 19 19 19 19 19 19 19 19 19 19 19 19 19 19 19 19 19 19 19 19 19 19 19 19 19 19 19 19 19 19 19 19 19 19 19 19 19 19 19 19 19 19 19 19 19 19 19 19 19 19 12 19 12 12 12 12 12 12 12 12 12 12 12 12 12 12 12 12 12 12 12 12 12 12 12 12 12 12 12 12 12 12 12 12 12 12 12 12 12 12 12 12 12 12 12 12 12 12 16 12 16 16 16 16 16 16 16 16 16 16 16 16 16 16 16 16 16 16 16 16 16 16 16 16 16 16 16 16 16 16 16 16 16 16 16 16 16 16 16 16 16 16 16 16 16 13 13 13 13 13 13 13 13 13 13 13 13 13 13 13 13 13 13 13 13 13 13 13 13 13 13 13 13 13 13 13 13 13 8 13 8 8 8 8 8 8 8 8 8 8 8 8 8 8 17 8 8 17 17 8 17 17 17 17 17 17 17 17 17 17 17 17 9 17 9 9 9 9 9 9 9 9 9 9 9 9 9 9 9 9 9 9 9 9 9 9 9 9 9 9 9 9 9 9 9 9 9 9 9 9 19 9 19 19 19 19 19 19 19 19 19 19 19 19 19 19 19 19 19 19 19 19 19 19 19 19 19 19 19 19 19 19 19 19 19 19 19 19 19 19 19 19 19 19 19 19 19 19 19 19 19 19 19 19 19 19 12 19 12 12 12 12 12 12 12 12 12 12 12 12 12 12 12 12 12 12 12 12 12 12 12 12 12 12 12 12 12 12 12 12 12 12 12 12 12 12 12 12 12 12 12 12 12 12 16 12 16 16 16 16 16 16 16 16 16 16 16 16 16 16 16 16 16 16 16 16 16 16 16 16 16 16 16 16 16 16 16 16 16 16 16 16 16 16 16 16 16 16 16 16 16 13 13 13 13 13 13 13 13 13 13 13 13 13 13 13 13 13 13 13 13 13 13 13 13 13 13 13 13 13 13 13 8 13 8 8 8 8 8 8 8 8 8 8 8 8 8 8 8 8 8 8 8 8 17 8 8 17 17 8 8 17 17 8 9 17 9 9 9 9 9 9 9 9 9 9 9 9 9 9 9 9 9 9 9 9 9 9 9 9 9 9 9 9 9 9 9 9 9 9 9 9 9 9 9 9 19 9 19 19 19 19 19 19 19 19 19 19 19 19 19 19 19 19 19 19 19 19 19 19 19 19 19 19 19 19 19 19 19 19 19 19 19 19 19 19 19 19 19 19 19 19 19 19 19 19 19 19 19 19 12 19 12 12 12 12 12 12 12 12 12 12 12 12 12 12 12 12 12 12 12 12 12 12 12 12 12 12 12 12 12 12 12 12 12 12 12 12 12 12 12 12 12 12 12 12 12 12 12 12 16 12 12 16 16 12 16 16 16 16 16 16 16 16 16 16 16 16 16 16 16 16 16 16 16 16 16 16 16 16 16 16 16 16 16 16 16 16 16 16 16 16 16 16 16 16 16 13 13 13 13 13 13 13 13 13 13 13 13 13 13 13 13 13 13 13 13 13 13 13 13 13 13 13 8 13 8 8 8 8 8 8 8 8 8 8 8 8 8 8 8 8 8 8 8 8 8 8 8 8 8 8 8 8 8 8 8 8 9 8 9 9 9 9 9 9 9 9 9 9 9 9 9 9 9 9 9 9 9 9 9 9 9 9 9 9 9 9 9 9 9 9 9 9 9 9 9 9 9 9 9 9 19 9 9 19 19 9 19 19 19 19 19 19 19 19 19 19 19 19 19 19 19 19 19 19 19 19 19 19 19 19 19 19 19 19 19 19 19 19 19 19 19 19 19 19 19 19 19 19 19 19 19 19 12 19 12 12 12 12 12 12 12 12 12 12 12 12 12 12 12 12 12 12 12 12 12 12 12 12 12 12 12 12 12 12 12 12 12 12 12 12 12 12 12 12 12 12 12 12 12 12 12 12 12 12 12 12 12 12 16 12 16 16 16 16 16 16 16 16 16 16 16 16 16 16 16 16 16 16 16 16 16 16 16 16 16 16 16 16 16 16 16 16 16 16 16 16 16 16 16 16 16 13 13 20 20 13 13 20 20 13 13 20 13 13 13 13 13 13 13 13 13 13 13 13 13 13 8 13 8 8 8 8 8 8 8 8 8 8 8 8 8 8 8 8 8 8 8 8 8 8 8 8 8 8 8 8 8 8 8 8 8 8 9 8 8 9 9 8 9 9 9 9 9 9 9 9 9 9 9 9 9 9 9 9 9 9 9 9 9 9 9 9 9 9 9 9 9 9 9 9 9 9 9 9 9 9 9 9 9 9 19 9 19 19 19 19 19 19 19 19 19 19 19 19 19 19 19 19 19 19 19 19 19 19 19 19 19 19 19 19 19 19 19 19 19 19 19 19 19 19 19 19 19 19 19 19 19 19 12 19 12 12 12 12 12 12 12 12 12 12 12 12 12 12 12 12 12 12 12 12 12 12 12 12 12 12 12 12 12 12 12 12 12 12 12 12 12 12 12 12 12 12 12 12 12 12 12 12 12 12 12 12 12 12 16 12 16 16 16 16 16 16 16 16 16 16 16 16 16 16 16 16 16 16 16 16 16 16 16 16 16 16 16 16 16 16 16 16 16 16 16 16 16 16 16 16 16 20 20 20 20 20 20 20 20 20 13 20 20 13 13 20 20 13 13 20 13 13 13 13 8 13 8 8 8 8 8 8 8 8 8 8 8 8 8 8 8 8 8 8 8 8 8 8 8 8 8 8 8 8 8 8 8 8 8 8 8 8 8 8 8 8 9 8 9 9 9 9 9 9 9 9 9 9 9 9 9 9 9 9 9 9 9 9 9 9 9 9 9 9 9 9 9 9 9 9 9 9 9 9 9 9 9 9 9 9 19 9 19 19 19 19 19 19 19 19 19 19 19 19 19 19 19 19 19 19 19 19 19 19 19 19 19 19 19 19 19 19 19 19 19 19 19 19 19 19 19 19 19 19 19 19 19 19 12 19 12 12 12 12 12 12 12 12 12 12 12 12 12 12 12 12 12 12 12 12 12 12 12 12 12 12 12 12 12 12 12 12 12 12 12 12 12 12 12 12 12 12 12 12 12 12 12 12 12 12 12 12 12 12 16 12 16 16 16 16 16 16 16 16 16 16 16 16 16 16 16 16 16 16 16 16 16 16 16 16 16 16 16 16 16 16 16 16 16 16 16 16 16 16 16 16 16 20 20 20 20 20 20 20 20 20 20 20 20 20 20 20 20 20 13 20 20 13 8 20 8 8 8 8 8 8 8 8 8 8 8 8 8 8 8 8 8 8 8 8 8 8 8 8 8 8 8 8 8 8 8 8 8 8 8 8 8 8 8 8 8 8 9 8 9 9 9 9 9 9 9 9 9 9 9 9 9 9 9 9 9 9 9 9 9 9 9 9 9 9 9 9 9 9 9 9 9 9 9 9 9 9 9 9 9 9 19 9 19 19 19 19 19 19 19 19 19 19 19 19 19 19 19 19 19 19 19 19 19 19 19 19 19 19 19 19 19 19 19 19 19 19 19 19 19 19 19 19 19 19 19 19 5 19 12 5 5 12 12 5 12 12 12 12 12 12 12 12 12 12 12 12 12 12 12 12 12 12 12 12 12 12 12 12 12 12 12 12 12 12 12 12 12 12 12 12 12 12 12 12 12 12 12 12 12 12 12 12 12 12 16 12 16 16 16 16 16 16 16 16 16 16 16 16 16 16 16 16 16 16 16 16 16 16 16 16 16 16 16 16 16 16 16 16 16 16 16 16 16 16 16 16 16 20 20 20 20 20 20 20 20 20 20 20 20 20 20 20 20 20 20 20 20 20 8 20 20 8 8 20 8 8 8 8 8 8 8 8 8 8 8 8 8 8 8 8 8 8 8 8 8 8 8 8 8 8 8 8 8 8 8 8 8 8 8 8 8 8 9 8 9 9 9 9 9 9 9 9 9 9 9 9 9 9 9 9 9 9 9 9 9 9 9 9 9 9 9 9 9 9 9 9 9 9 9 9 9 9 9 9 9 9 19 9 19 19 19 19 19 19 19 19 19 19 19 19 19 19 19 19 19 19 19 19 19 19 19 19 19 19 19 19 19 19 19 19 19 19 19 19 19 19 19 19 5 19 5 5 5 5 5 5 5 5 12 5 5 12 12 5 12 12 12 12 12 12 12 12 12 12 12 12 12 12 12 12 12 12 12 12 12 12 12 12 12 12 12 12 12 12 12 12 12 12 12 12 12 12 12 12 12 12 12 12 12 12 16 12 16 16 16 16 16 16 16 16 16 16 16 16 16 16 16 16 16 16 16 16 16 16 16 16 16 16 16 16 16 16 16 16 16 16 16 16 16 16 16 16 16 20 20 20 20 20 20 20 20 20 20 20 20 20 20 20 20 20 20 20 20 20 20 20 20 20 8 20 20 8 8 20 8 8 8 8 8 8 8 8 8 8 8 8 8 8 8 8 8 8 8 8 8 8 8 8 8 8 8 8 8 8 8 8 8 8 9 8 9 9 9 9 9 9 9 9 9 9 9 9 9 9 9 9 9 9 9 9 9 9 9 9 9 9 9 9 9 9 9 9 9 9 9 9 9 9 9 9 9 9 19 9 19 19 19 19 19 19 19 19 19 19 19 19 19 19 19 19 19 19 19 19 19 19 19 19 19 19 19 19 19 19 19 19 19 19 19 19 5 19 5 5 5 5 5 5 5 5 5 5 5 5 5 5 5 5 12 5 5 12 12 5 12 12 12 12 12 12 12 12 12 12 12 12 12 12 12 12 12 12 12 12 12 12 12 12 12 12 12 12 12 12 12 12 12 12 12 12 12 12 12 12 12 12 16 12 16 16 16 16 16 16 16 16 16 16 16 16 16 16 16 16 16 16 16 16 16 16 16 16 16 16 16 16 16 16 16 16 16 16 16 16 16 16 16 16 16 20 20 20 20 20 20 20 20 20 20 20 20 20 20 20 20 20 20 20 20 20 20 20 20 20 20 20 20 20 8 20 20 8 8 20 8 8 8 8 8 8 8 8 8 8 8 8 8 8 8 8 8 8 8 8 8 8 8 8 8 8 8 8 8 8 9 8 9 9 9 9 9 9 9 9 9 9 9 9 9 9 9 9 9 9 9 9 9 9 9 9 9 9 9 9 9 9 9 9 9 9 9 9 9 9 9 9 9 9 19 9 19 19 19 19 19 19 19 19 19 19 19 19 19 19 19 19 19 19 19 19 19 19 19 19 19 19 19 19 19 19 19 19 5 19 5 5 5 5 5 5 5 5 5 5 5 5 5 5 5 5 5 5 5 5 5 5 5 5 12 5 5 12 12 5 12 12 12 12 12 12 12 12 12 12 12 12 12 12 12 12 12 12 12 12 12 12 12 12 12 12 12 12 12 12 12 12 12 12 12 12 12 12 16 12 6 16 16 6 6 16 16 6 6 16 16 6 16 16 16 16 16 16 16 16 16 16 16 16 16 16 16 16 16 16 16 16 16 16 16 16 16 16 16 16 16 20 20 20 20 20 20 20 20 20 20 20 20 20 20 20 20 20 20 20 20 20 20 20 20 20 20 20 20 20 20 20 20 20 8 20 20 8 8 20 8 8 8 8 8 8 8 8 8 8 8 8 8 8 8 8 8 8 8 8 8 8 8 8 8 8 9 8 9 9 9 9 9 9 9 9 9 9 9 9 9 9 9 9 9 9 9 9 9 9 9 9 9 9 9 9 9 9 9 9 9 9 9 9 9 9 9 9 9 9 19 9 19 19 19 19 19 19 19 19 19 19 19 19 19 19 19 19 19 19 19 19 19 19 19 19 19 19 19 19 5 19 5 5 5 5 5 5 5 5 5 5 5 5 5 5 5 5 5 5 5 5 5 5 5 5 5 5 5 5 5 5 5 5 12 5 5 12 12 5 12 12 12 12 12 12 12 12 12 12 12 12 12 12 12 12 12 12 12 12 12 12 12 12 12 12 12 12 12 12 12 12 6 12 6 6 6 6 6 6 6 6 6 6 6 6 16 6 6 16 16 6 6 16 16 6 6 16 16 6 6 16 16 6 6 16 16 6 6 16 16 6 6 16 16 6 6 20 20 20 20 20 20 20 20 20 20 20 20 20 20 20 20 20 20 20 20 20 20 20 20 20 20 20 20 20 20 20 20 20 20 20 20 20 8 20 8 8 8 8 8 8 8 8 8 8 8 8 8 8 8 8 8 8 8 8 8 8 8 8 8 8 9 8 9 9 9 9 9 9 9 9 9 9 9 9 9 9 9 9 9 9 9 9 9 9 9 9 9 9 9 9 9 9 9 9 9 9 9 9 9 9 9 9 9 9 19 9 19 19 19 19 19 19 19 19 19 19 19 19 19 19 19 19 19 19 19 19 5 19 19 5 5 19 5 5 5 5 5 5 5 5 5 5 5 5 5 5 5 5 5 5 5 5 5 5 5 5 5 5 5 5 5 5 5 5 5 5 5 5 5 5 5 5 12 5 5 12 12 5 12 12 12 12 12 12 12 12 12 12 12 12 12 12 12 12 12 12 12 12 12 12 12 12 6 12 6 6 6 6 6 6 6 6 6 6 6 6 6 6 6 6 6 6 6 6 6 6 6 6 6 6 6 6 6 6 6 6 6 6 6 6 6 6 6 6 6 6 6 6 6 6 6 20 20 20 20 20 20 20 20 20 20 20 20 20 20 20 20 20 20 20 20 20 20 20 20 20 20 20 20 20 20 20 20 20 20 20 20 20 8 20 8 8 8 8 8 8 8 8 8 8 8 8 8 8 8 8 8 8 8 8 8 8 8 8 8 8 9 8 9 9 9 9 9 9 9 9 9 9 9 9 9 9 9 9 9 9 9 9 9 9 9 9 9 9 9 9 9 9 9 9 9 9 9 9 9 9 9 9 9 9 19 9 7 19 19 7 7 19 19 7 5 19 19 5 5 19 19 5 5 19 5 5 5 5 5 5 5 5 5 5 5 5 5 5 5 5 5 5 5 5 5 5 5 5 5 5 5 5 5 5 5 5 5 5 5 5 5 5 5 5 5 5 5 5 5 5 5 5 5 5 5 5 12 5 5 12 12 5 5 12 12 5 12 12 12 12 12 12 12 12 12 12 12 12 6 12 6 6 6 6 6 6 6 6 6 6 6 6 6 6 6 6 6 6 6 6 6 6 6 6 6 6 6 6 6 6 6 6 6 6 6 6 6 6 6 6 6 6 6 6 6 6 6 6 6 6 6 20 20 20 20 20 20 20 20 20 20 20 20 20 20 20 20 20 20 20 20 20 20 20 20 20 20 20 20 20 20 20 20 20 20 20 20 20 8 20 8 8 8 8 8 8 8 8 8 8 8 8 8 8 8 8 8 8 8 8 8 8 8 8 8 8 9 8 9 9 9 9 9 9 9 9 9 9 9 9 9 9 9 9 9 9 9 9 9 9 9 9 9 9 9 9 9 9 9 9 9 9 9 9 9 9 9 9 7 9 7 7 7 7 7 7 7 7 5 7 5 5 5 5 5 5 5 5 5 5 5 5 5 5 5 5 5 5 5 5 5 5 5 5 5 5 5 5 5 5 5 5 5 5 5 5 5 5 5 5 5 5 5 5 5 5 5 5 5 5 5 5 5 5 5 5 5 5 5 5 5 5 5 5 5 5 5 5 5 5 12 5 5 12 12 5 6 12 12 6 6 12 6 6 6 6 6 6 6 6 6 6 6 6 6 6 6 6 6 6 6 6 6 6 6 6 6 6 6 6 6 6 6 6 6 6 6 6 6 6 6 6 6 6 6 6 6 6 6 6 6 6 6 6 6 6 6 20 20 20 20 20 20 20 20 20 20 20 20 20 20 20 20 20 20 20 20 20 20 20 20 20 20 20 20 20 20 20 20 20 20 20 20 20 8 20 8 8 8 8 8 8 8 8 8 8 8 8 8 8 8 8 8 8 8 8 8 8 8 8 8 8 9 8 9 9 9 9 9 9 9 9 9 9 9 9 9 9 9 9 9 9 9 9 9 9 9 9 9 9 9 9 9 9 9 9 9 9 9 9 7 9 7 7 7 7 7 7 7 7 7 7 7 7 5 7 5 5 5 5 5 5 5 5 5 5 5 5 5 5 5 5 5 5 5 5 5 5 5 5 5 5 5 5 5 5 5 5 5 5 5 5 5 5 5 5 5 5 5 5 5 5 5 5 5 5 5 5 5 5 5 5 5 5 5 5 5 5 5 5 5 5 5 5 5 5 5 5 5 5 6 5 6 6 6 6 6 6 6 6 6 6 6 6 6 6 6 6 6 6 6 6 6 6 6 6 6 6 6 6 6 6 6 6 6 6 6 6 6 6 6 6 6 6 6 6 6 6 6 6 6 6 6 6 6 6 6 6 6 6 6 6 6 20 20 15 15 20 20 15 15 20 20 15 15 20 20 15 15 20 20 15 15 20 20 15 15 20 20 15 15 20 20 15 15 20 20 15 15 20 8 15 15 8 8 15 15 8 8 15 8 8 8 8 8 8 8 8 8 8 8 8 8 8 8 8 8 8 9 8 9 9 9 9 9 9 9 9 9 9 9 9 9 9 9 9 9 9 9 9 9 9 9 9 9 9 9 9 9 9 9 9 7 9 7 7 7 7 7 7 7 7 7 7 7 7 7 7 7 7 5 7 7 5 5 7 5 5 5 5 5 5 5 5 5 5 5 5 5 5 5 5 5 5 5 5 5 5 5 5 5 5 5 5 5 5 5 5 5 5 5 5 5 5 5 5 5 5 5 5 5 5 5 5 5 5 5 5 5 5 5 5 5 5 5 5 5 5 5 5 5 5 5 5 5 5 6 5 6 6 6 6 6 6 6 6 6 6 6 6 6 6 6 6 6 6 6 6 6 6 6 6 6 6 6 6 6 6 6 6 6 6 6 6 6 6 6 6 6 6 6 6 6 6 6 6 6 6 6 6 6 6 6 6 6 6 6 6 6 15 15 15 15 15 15 15 15 15 15 15 15 15 15 15 15 15 15 15 15 15 15 15 15 15 15 15 15 15 15 15 15 15 15 15 15 15 15 15 15 15 15 15 15 15 8 15 15 8 8 15 15 8 8 15 15 8 8 15 15 8 8 15 15 8 9 15 15 9 9 15 9 9 9 9 9 9 9 9 9 9 9 9 9 9 9 9 9 9 9 9 9 9 9 9 7 9 7 7 7 7 7 7 7 7 7 7 7 7 7 7 7 7 7 7 7 7 7 7 7 7 5 7 7 5 5 7 5 5 5 5 5 5 5 5 5 5 5 5 5 5 5 5 5 5 5 5 5 5 5 5 5 5 5 5 5 5 5 5 5 5 5 5 5 5 5 5 5 5 5 5 5 5 5 5 5 5 5 5 5 5 5 5 5 5 5 5 5 5 5 5 5 5 6 5 6 6 6 6 6 6 6 6 6 6 6 6 6 6 6 6 6 6 6 6 6 6 6 6 6 6 6 6 6 6 6 6 6 6 6 6 6 6 6 6 6 6 6 6 6 6 6 6 6 6 6 6 6 6 6 6 6 6 6 6 6 15 15 15 15 15 15 15 15 15 15 15 15 15 15 15 15 15 15 15 15 15 15 15 15 15 15 15 15 15 15 15 15 15 15 15 15 15 15 15 15 15 15 15 15 15 15 15 15 15 15 15 15 15 15 15 15 15 15 15 15 15 15 15 15 15 15 15 15 15 9 15 15 9 9 15 9 9 9 9 9 9 9 9 9 9 9 9 7 9 9 7 7 9 7 7 7 7 7 7 7 7 7 7 7 7 7 7 7 7 7 7 7 7 7 7 7 7 7 7 7 7 7 7 7 7 5 7 5 5 5 5 5 5 5 5 5 5 5 5 5 5 5 5 5 5 5 5 5 5 5 5 5 5 5 5 5 5 5 5 5 5 5 5 5 5 5 5 5 5 5 5 5 5 5 5 5 5 5 5 5 5 5 5 5 5 5 5 5 5 5 5 6 5 6 6 6 6 6 6 6 6 6 6 6 6 6 6 6 6 6 6 6 6 6 6 6 6 6 6 6 6 6 6 6 6 6 6 6 6 6 6 6 6 6 6 6 6 6 6 6 6 6 6 6 6 6 6 6 6 6 6 6 6 6 6 6 15 15 15 15 15 15 15 15 15 15 15 15 15 15 15 15 15 15 15 15 15 15 15 15 15 15 15 15 15 15 15 15 15 15 15 15 15 15 15 15 15 15 15 15 15 15 15 15 15 15 15 15 15 15 15 15 15 15 15 15 15 15 15 15 15 15 15 15 15 15 15 15 15 9 15 7 9 9 7 7 9 9 7 7 9 7 7 7 7 7 7 7 7 7 7 7 7 7 7 7 7 7 7 7 7 7 7 7 7 7 7 7 7 7 7 7 7 7 7 7 7 7 7 7 7 5 7 7 5 5 7 5 5 5 5 5 5 5 5 5 5 5 5 5 5 5 5 5 5 5 5 5 5 5 5 5 5 5 5 5 5 5 5 5 5 5 5 5 5 5 5 5 5 5 5 5 5 5 5 5 5 5 5 5 5 5 5 5 5 6 5 6 6 6 6 6 6 6 6 6 6 6 6 6 6 6 6 6 6 6 6 6 6 6 6 6 6 6 6 6 6 6 6 6 6 6 6 6 6 6 6 6 6 6 6 6 6 6 6 6 6 6 6 6 6 6 6 6 6 6 6 6 6 6 6 6 15 15 15 15 15 15 15 15 15 15 15 15 15 15 15 15 15 15 15 15 15 15 15 15 15 15 15 15 15 15 15 15 15 15 15 15 15 15 15 15 15 15 15 15 15 15 15 15 15 15 15 15 15 15 15 15 15 15 15 15 15 15 15 15 15 15 15 15 15 15 15 15 15 7 15 7 7 7 7 7 7 7 7 7 7 7 7 7 7 7 7 7 7 7 7 7 7 7 7 7 7 7 7 7 7 7 7 7 7 7 7 7 7 7 7 7 7 7 7 7 7 7 7 7 7 7 7 7 7 5 7 7 5 5 7 5 5 5 5 5 5 5 5 5 5 5 5 5 5 5 5 5 5 5 5 5 5 5 5 5 5 5 5 5 5 5 5 5 5 5 5 5 5 5 5 5 5 5 5 5 5 5 5 5 5 5 5 5 5 6 5 6 6 6 6 6 6 6 6 6 6 6 6 6 6 6 6 6 6 6 6 6