# vtk DataFile Version 4.2
vtk output
ASCII
DATASET RECTILINEAR_GRID
FIELD FieldData 3
MeshName 1 1 string
mesh

CYCLE 1 1 int
2 
TIME 1 1 double
2 
DIMENSIONS 65 65 1
X_COORDINATES 65 double
0	1	2	3	4	5	6	7	8	9	10	11	12	13	14	15	16	17	18	19	20	21	22	23	24	25	26	27	28	29	30	31	32	33	34	35	36	37	38	39	40	41	42	43	44	45	46	47	48	49	50	51	52	53	54	55	56	57	58	59	60	61	62	63	64
Y_COORDINATES 65 double
0	1	2	3	4	5	6	7	8	9	10	11	12	13	14	15	16	17	18	19	20	21	22	23	24	25	26	27	28	29	30	31	32	33	34	35	36	37	38	39	40	41	42	43	44	45	46	47	48	49	50	51	52	53	54	55	56	57	58	59	60	61	62	63	64 
Z_COORDINATES 1 double
0 
POINT_DATA 4225
SCALARS FeatureIds double
LOOKUP_TABLE default
3 3 3 3 3 3 3 3 3 
3 3 3 3 17 17 17 17 17 
17 17 17 17 17 17 17 17 19 
19 19 19 19 19 19 19 19 19 
19 19 19 4 4 4 4 4 4 
4 4 4 4 4 2 2 2 2 
2 2 2 2 2 2 2 2 2 
2 2 3 3 3 3 3 3 3 
3 3 3 3 3 3 17 17 17 
17 17 17 17 17 17 17 17 17 
17 19 19 19 19 19 19 19 19 
19 19 19 19 19 4 4 4 4 
4 4 4 4 4 4 4 4 2 
2 2 2 2 2 2 2 2 2 
2 2 2 2 3 3 3 3 3 
3 3 3 3 3 3 3 3 17 
17 17 17 17 17 17 17 17 17 
17 17 17 19 19 19 19 19 19 
19 19 19 19 19 19 19 4 4 
4 4 4 4 4 4 4 4 4 
4 4 2 2 2 2 2 2 2 
2 2 2 2 2 2 3 3 3 
3 3 3 3 3 3 3 3 3 
3 17 17 17 17 17 17 17 17 
17 17 17 17 17 19 19 19 19 
19 19 19 19 19 19 19 19 19 
4 4 4 4 4 4 4 4 4 
4 4 4 4 4 2 2 2 2 
2 2 2 2 2 2 2 2 3 
3 3 3 3 3 3 3 3 3 
3 3 17 17 17 17 17 17 17 
17 17 17 17 17 17 17 19 19 
19 19 19 19 19 19 19 19 19 
19 19 4 4 4 4 4 4 4 
4 4 4 4 4 4 4 2 2 
2 2 2 2 2 2 2 2 2 
2 3 3 3 3 3 3 3 3 
3 3 3 17 17 17 17 17 17 
17 17 17 17 17 17 17 17 17 
19 19 19 19 19 19 19 19 19 
19 19 19 19 19 4 4 4 4 
4 4 4 4 4 4 4 4 4 
4 2 2 2 2 2 2 2 2 
2 2 2 13 13 13 13 3 3 
3 3 3 3 17 17 17 17 17 
17 17 17 17 17 17 17 17 17 
17 17 19 19 19 19 19 19 19 
19 19 19 19 19 19 19 4 4 
4 4 4 4 4 4 4 4 4 
4 4 4 2 2 2 16 16 16 
16 16 16 16 16 13 13 13 13 
13 13 3 3 3 3 17 17 17 
17 17 17 17 17 17 17 17 17 
17 17 17 17 19 19 19 19 19 
19 19 19 19 19 19 19 19 19 
19 4 4 4 4 4 4 4 4 
4 4 4 4 4 2 16 16 16 
16 16 16 16 16 16 16 13 13 
13 13 13 13 13 13 13 13 17 
17 17 17 17 17 17 17 17 17 
17 17 17 17 17 17 19 19 19 
19 19 19 19 19 19 19 19 19 
19 19 19 12 12 12 12 12 12 
12 4 4 4 4 4 4 16 16 
16 16 16 16 16 16 16 16 16 
13 13 13 13 13 13 13 13 13 
13 17 17 17 17 17 17 17 17 
17 17 17 17 9 9 9 9 19 
19 19 19 19 19 19 19 19 19 
19 19 19 19 19 12 12 12 12 
12 12 12 12 12 12 4 4 16 
16 16 16 16 16 16 16 16 16 
16 16 13 13 13 13 13 13 13 
13 13 13 8 17 17 17 17 17 
17 17 17 17 9 9 9 9 9 
9 19 19 19 19 19 19 19 19 
19 19 19 19 19 19 19 12 12 
12 12 12 12 12 12 12 12 12 
12 16 16 16 16 16 16 16 16 
16 16 16 16 13 13 13 13 13 
13 13 13 13 13 8 8 17 17 
17 17 17 17 17 9 9 9 9 
9 9 9 19 19 19 19 19 19 
19 19 19 19 19 19 19 19 19 
12 12 12 12 12 12 12 12 12 
12 12 12 16 16 16 16 16 16 
16 16 16 16 16 16 13 13 13 
13 13 13 13 13 13 8 8 8 
8 17 17 17 17 17 9 9 9 
9 9 9 9 9 9 19 19 19 
19 19 19 19 19 19 19 19 19 
19 19 12 12 12 12 12 12 12 
12 12 12 12 12 16 16 16 16 
16 16 16 16 16 16 16 16 13 
13 13 13 13 13 13 13 13 8 
8 8 8 8 17 17 17 9 9 
9 9 9 9 9 9 9 9 19 
19 19 19 19 19 19 19 19 19 
19 19 19 19 12 12 12 12 12 
12 12 12 12 12 12 12 16 16 
16 16 16 16 16 16 16 16 16 
16 13 13 13 13 13 13 13 13 
8 8 8 8 8 8 8 8 9 
9 9 9 9 9 9 9 9 9 
9 19 19 19 19 19 19 19 19 
19 19 19 19 19 12 12 12 12 
12 12 12 12 12 12 12 12 12 
12 16 16 16 16 16 16 16 16 
16 16 16 13 13 13 13 13 13 
13 8 8 8 8 8 8 8 8 
8 9 9 9 9 9 9 9 9 
9 9 9 9 19 19 19 19 19 
19 19 19 19 19 19 19 12 12 
12 12 12 12 12 12 12 12 12 
12 12 12 16 16 16 16 16 16 
16 16 16 16 16 20 20 20 13 
13 13 13 8 8 8 8 8 8 
8 8 8 8 9 9 9 9 9 
9 9 9 9 9 9 19 19 19 
19 19 19 19 19 19 19 19 19 
12 12 12 12 12 12 12 12 12 
12 12 12 12 12 16 16 16 16 
16 16 16 16 16 16 16 20 20 
20 20 20 13 8 8 8 8 8 
8 8 8 8 8 8 9 9 9 
9 9 9 9 9 9 9 9 19 
19 19 19 19 19 19 19 19 19 
19 19 12 12 12 12 12 12 12 
12 12 12 12 12 12 12 16 16 
16 16 16 16 16 16 16 16 16 
20 20 20 20 20 20 8 8 8 
8 8 8 8 8 8 8 8 9 
9 9 9 9 9 9 9 9 9 
9 19 19 19 19 19 19 19 19 
19 19 19 5 5 12 12 12 12 
12 12 12 12 12 12 12 12 12 
16 16 16 16 16 16 16 16 16 
16 16 20 20 20 20 20 20 20 
8 8 8 8 8 8 8 8 8 
8 9 9 9 9 9 9 9 9 
9 9 9 19 19 19 19 19 19 
19 19 19 19 5 5 5 5 12 
12 12 12 12 12 12 12 12 12 
12 12 16 16 16 16 16 16 16 
16 16 16 16 20 20 20 20 20 
20 20 20 8 8 8 8 8 8 
8 8 8 9 9 9 9 9 9 
9 9 9 9 9 19 19 19 19 
19 19 19 19 19 5 5 5 5 
5 5 12 12 12 12 12 12 12 
12 12 12 12 16 16 16 16 16 
16 16 16 16 16 16 20 20 20 
20 20 20 20 20 20 8 8 8 
8 8 8 8 8 9 9 9 9 
9 9 9 9 9 9 9 19 19 
19 19 19 19 19 19 5 5 5 
5 5 5 5 5 12 12 12 12 
12 12 12 12 12 12 6 6 6 
16 16 16 16 16 16 16 16 20 
20 20 20 20 20 20 20 20 20 
8 8 8 8 8 8 8 9 9 
9 9 9 9 9 9 9 9 9 
19 19 19 19 19 19 19 5 5 
5 5 5 5 5 5 5 5 12 
12 12 12 12 12 12 12 6 6 
6 6 6 6 6 6 6 6 6 
6 20 20 20 20 20 20 20 20 
20 20 8 8 8 8 8 8 8 
9 9 9 9 9 9 9 9 9 
9 9 19 19 19 19 19 5 5 
5 5 5 5 5 5 5 5 5 
5 5 12 12 12 12 12 12 6 
6 6 6 6 6 6 6 6 6 
6 6 6 20 20 20 20 20 20 
20 20 20 20 8 8 8 8 8 
8 8 9 9 9 9 9 9 9 
9 9 9 9 7 7 5 5 5 
5 5 5 5 5 5 5 5 5 
5 5 5 5 5 5 12 12 12 
6 6 6 6 6 6 6 6 6 
6 6 6 6 6 20 20 20 20 
20 20 20 20 20 20 8 8 8 
8 8 8 8 9 9 9 9 9 
9 9 9 9 9 7 7 7 5 
5 5 5 5 5 5 5 5 5 
5 5 5 5 5 5 5 5 5 
6 6 6 6 6 6 6 6 6 
6 6 6 6 6 6 6 20 20 
20 20 20 20 20 20 20 20 8 
8 8 8 8 8 8 9 9 9 
9 9 9 9 9 9 7 7 7 
7 5 5 5 5 5 5 5 5 
5 5 5 5 5 5 5 5 5 
5 5 6 6 6 6 6 6 6 
6 6 6 6 6 6 6 6 6 
15 15 15 15 15 15 15 15 15 
15 15 15 8 8 8 8 8 9 
9 9 9 9 9 9 9 7 7 
7 7 7 7 5 5 5 5 5 
5 5 5 5 5 5 5 5 5 
5 5 5 5 6 6 6 6 6 
6 6 6 6 6 6 6 6 6 
6 6 15 15 15 15 15 15 15 
15 15 15 15 15 15 15 15 15 
15 15 9 9 9 9 9 9 7 
7 7 7 7 7 7 7 5 5 
5 5 5 5 5 5 5 5 5 
5 5 5 5 5 5 6 6 6 
6 6 6 6 6 6 6 6 6 
6 6 6 6 15 15 15 15 15 
15 15 15 15 15 15 15 15 15 
15 15 15 15 15 9 9 9 7 
7 7 7 7 7 7 7 7 7 
5 5 5 5 5 5 5 5 5 
5 5 5 5 5 5 5 6 6 
6 6 6 6 6 6 6 6 6 
6 6 6 6 6 6 15 15 15 
15 15 15 15 15 15 15 15 15 
15 15 15 15 15 15 15 7 7 
7 7 7 7 7 7 7 7 7 
7 7 7 5 5 5 5 5 5 
5 5 5 5 5 5 5 5 5 
6 6 6 6 6 6 6 6 6 
6 6 6 6 6 6 6 6 15 
15 15 15 15 15 15 15 15 15 
15 15 15 15 15 15 15 15 15 
7 7 7 7 7 7 7 7 7 
7 7 7 7 7 7 5 5 5 
5 5 5 5 5 5 5 5 5 
5 5 6 6 6 6 6 6 6 
6 6 6 6 6 6 6 6 6 
6 15 15 15 15 15 15 15 15 
15 15 15 15 15 15 15 15 15 
15 7 7 7 7 7 7 7 7 
7 7 7 7 7 7 7 7 7 
5 5 5 5 5 5 5 5 5 
5 5 5 5 6 6 6 6 6 
6 6 6 6 6 6 6 6 6 
6 6 6 15 15 15 15 15 15 
15 15 15 15 15 15 15 15 15 
15 15 7 7 7 7 7 7 7 
7 7 7 7 7 7 7 7 7 
7 7 7 5 5 5 5 5 5 
5 5 5 5 5 5 6 6 6 
6 6 6 6 6 6 6 6 6 
6 6 6 6 6 15 15 15 15 
15 15 15 15 15 15 15 15 15 
15 15 15 15 7 7 7 7 7 
7 7 7 7 7 7 7 7 7 
7 7 7 7 7 7 5 5 5 
5 5 5 5 5 5 5 5 6 
6 6 6 6 6 6 6 6 6 
6 6 6 6 6 6 6 15 15 
15 15 15 15 15 15 15 15 15 
15 15 15 15 15 7 7 7 7 
7 7 7 7 7 7 7 7 7 
7 7 7 7 7 7 7 7 7 
5 5 5 5 5 5 5 5 5 
11 11 11 11 6 6 6 6 6 
6 6 6 6 6 6 6 6 6 
15 15 15 15 15 15 15 15 15 
15 15 15 15 15 15 7 7 7 
7 7 7 7 7 7 7 7 7 
7 7 7 7 7 7 7 7 7 
7 7 7 5 5 5 5 5 5 
5 11 11 11 11 11 11 11 6 
6 6 6 6 6 6 6 6 6 
6 6 15 15 15 15 15 15 15 
15 15 15 15 15 15 15 7 7 
7 7 7 7 7 7 7 7 7 
7 7 7 7 7 7 7 7 7 
7 7 7 7 7 5 5 5 5 
5 5 11 11 11 11 11 11 11 
11 11 6 6 6 6 6 6 6 
10 10 10 10 15 15 15 15 15 
15 15 15 15 15 15 15 15 15 
7 7 7 7 7 7 7 7 7 
7 7 7 7 7 7 7 7 7 
7 7 7 7 7 7 7 5 5 
5 5 5 11 11 11 11 11 11 
11 11 11 11 11 6 6 6 6 
10 10 10 10 10 10 15 15 15 
15 15 15 15 15 15 15 15 15 
15 15 7 7 7 7 7 7 7 
7 7 7 7 7 7 7 7 7 
7 7 7 7 7 7 7 7 7 
5 5 5 5 11 11 11 11 11 
11 11 11 11 11 11 11 11 11 
6 10 10 10 10 10 10 10 15 
15 15 15 15 15 15 15 15 15 
15 15 15 15 7 7 7 7 7 
7 7 7 7 7 7 7 7 7 
7 7 7 7 7 7 7 7 7 
7 7 5 5 11 11 11 11 11 
11 11 11 11 11 11 11 11 11 
11 11 10 10 10 10 10 10 10 
10 15 15 15 15 15 15 15 15 
15 15 15 18 18 18 7 7 7 
7 7 7 7 7 7 7 7 7 
7 7 7 7 7 7 7 7 7 
7 7 7 7 11 11 11 11 11 
11 11 11 11 11 11 11 11 11 
11 11 11 11 10 10 10 10 10 
10 10 10 15 15 15 15 15 15 
15 15 15 18 18 18 18 18 18 
7 7 7 7 7 7 7 7 7 
7 7 7 7 7 7 7 7 7 
7 7 7 7 7 7 11 11 11 
11 11 11 11 11 11 11 11 11 
11 11 11 11 11 11 10 10 10 
10 10 10 10 10 15 15 15 15 
15 15 15 15 18 18 18 18 18 
18 18 18 7 7 7 7 7 7 
7 7 7 7 7 7 7 7 7 
7 7 7 7 7 7 7 11 11 
11 11 11 11 11 11 11 11 11 
11 11 11 11 11 11 11 11 10 
10 10 10 10 10 10 10 15 15 
15 15 15 15 15 18 18 18 18 
18 18 18 18 18 18 7 7 7 
7 7 7 7 7 7 7 7 7 
7 7 7 7 7 7 7 7 11 
11 11 11 11 11 11 11 11 11 
11 11 11 11 11 11 11 11 11 
11 10 10 10 10 10 10 10 10 
15 15 15 15 15 15 18 18 18 
18 18 18 18 18 18 18 18 18 
7 7 7 7 7 7 7 7 7 
7 7 7 7 7 7 7 7 7 
11 11 11 11 11 11 11 11 11 
11 11 11 11 11 11 11 11 11 
11 11 11 10 10 10 10 10 10 
10 10 15 15 15 15 15 18 18 
18 18 18 18 18 18 18 18 18 
18 18 18 7 7 7 7 7 7 
7 7 7 7 7 7 7 7 7 
7 7 11 11 11 11 11 11 11 
11 11 11 11 11 11 11 11 11 
11 11 11 11 10 10 10 10 10 
10 10 10 10 15 15 15 18 18 
18 18 18 18 18 18 18 18 18 
18 18 18 18 18 18 7 7 7 
7 7 7 7 7 7 7 7 7 
7 7 7 7 11 11 11 11 11 
11 11 11 11 11 11 11 11 11 
11 11 11 11 11 11 10 10 10 
10 10 10 10 10 10 18 18 18 
18 18 18 18 18 18 18 18 18 
18 18 18 18 18 18 18 18 18 
7 7 7 7 7 7 7 7 7 
7 7 7 7 7 7 11 11 11 
11 11 11 11 11 11 11 11 11 
11 11 11 11 11 11 11 11 10 
10 10 10 10 10 10 10 10 18 
18 18 18 18 18 18 18 18 18 
18 18 18 18 18 18 18 18 18 
18 18 18 7 7 7 7 7 7 
7 7 7 7 7 7 7 7 11 
11 11 11 11 11 11 11 11 11 
11 11 11 11 11 11 11 11 11 
10 10 10 10 10 10 10 10 10 
10 18 18 18 18 18 18 18 18 
18 18 18 18 18 18 18 18 18 
18 18 18 18 18 18 7 7 7 
7 7 7 7 7 7 7 7 7 
7 11 11 11 11 11 11 11 11 
11 11 11 11 11 11 11 11 11 
11 11 10 10 10 10 10 10 10 
10 10 10 18 18 18 18 18 18 
18 18 18 18 18 18 18 18 18 
18 18 18 18 18 18 18 18 18 
7 7 7 7 7 7 7 7 7 
7 7 7 11 11 11 11 11 11 
11 11 11 11 11 11 11 11 11 
11 11 11 11 10 10 10 10 10 
10 10 10 10 10 18 18 18 18 
18 18 18 18 18 18 18 18 18 
18 18 18 18 18 18 18 18 18 
18 18 18 7 7 7 7 7 7 
7 7 7 7 7 11 11 11 11 
11 11 11 11 11 11 11 11 11 
11 11 11 11 11 11 10 10 10 
10 10 10 10 10 10 10 18 18 
18 18 18 18 18 18 18 18 18 
18 18 18 18 18 18 18 18 18 
18 18 18 18 18 18 7 7 7 
7 7 7 7 7 7 14 14 14 
14 14 14 14 14 14 14 14 14 
14 14 14 14 14 14 14 14 10 
10 10 10 10 10 10 10 10 10 
18 18 18 18 18 18 18 18 18 
18 18 18 18 18 18 18 18 18 
18 18 18 18 18 18 18 18 18 
7 7 7 7 7 7 7 14 14 
14 14 14 14 14 14 14 14 14 
14 14 14 14 14 14 14 14 14 
14 10 10 10 10 10 10 10 10 
10 10 18 18 18 18 18 18 18 
18 18 18 18 18 18 18 18 18 
18 18 18 18 18 18 18 18 18 
18 18 18 7 7 7 7 7 14 
14 14 14 14 14 14 14 14 14 
14 14 14 14 14 14 14 14 14 
14 14 14 1 1 1 1 1 1 
1 1 1 1 18 18 18 18 18 
18 18 18 18 18 18 18 18 18 
18 18 18 18 18 18 18 18 18 
18 18 18 18 18 18 7 7 7 
14 14 14 14 14 14 14 14 14 
14 14 14 14 14 14 14 14 14 
14 14 14 14 14 1 1 1 1 
1 1 1 1 1 1 18 18 18 
18 18 18 18 18 18 18 18 18 
18 18 18 18 18 18 18 18 18 
18 18 18 18 18 18 18 18 18 
14 14 14 14 14 14 14 14 14 
14 14 14 14 14 14 14 14 14 
14 14 14 14 14 14 14 1 1 
1 1 1 1 1 1 1 1 18 
18 18 18 18 18 18 18 18 18 
18 18 18 18 18 18 18 18 18 
18 18 18 18 18 18 18 18 18 
18 18 14 14 14 14 14 14 14 
14 14 14 14 14 14 14 14 14 
14 14 14 14 14 14 14 14 14 
1 1 1 1 1 1 1 1 1 
1 18 18 18 18 18 18 18 18 
18 18 18 18 18 18 18 18 18 
18 18 18 18 18 18 18 18 18 
18 18 18 18 14 14 14 14 14 
14 14 14 14 14 14 14 14 14 
14 14 14 14 14 14 14 14 14 
14 14 1 1 1 1 1 1 1 
1 1 1 18 18 18 18 18 18 
18 18 18 18 18 18 18 18 18 
18 18 18 18 18 18 18 18 18 
18 18 18 18 18 18 14 14 14 
14 14 14 14 14 14 14 14 14 
14 14 14 14 14 14 14 14 14 
14 14 14 14 1 1 1 1 1 
1 1 1 1 1 18 18 18 18 
18 18 18 18 18 18 18 18 18 
18 18 18 18 18 18 18 18 18 
18 18 18 18 18 18 18 18 14 
14 14 14 14 14 14 14 14 14 
14 14 14 14 14 14 14 14 14 
14 14 14 14 14 14 1 1 1 
1 1 1 1 1 1 1 18 18 
18 18 18 18 18 18 18 18 18 
18 18 18 18 18 18 18 18 18 
18 18 18 18 18 18 18 18 18 
14 14 14 14 14 14 14 14 14 
14 14 14 14 14 14 14 14 14 
14 14 14 14 14 14 14 14 1 
1 1 1 1 1 1 1 1 1 
18 18 18 18 18 18 18 18 18 
18 18 18 18 18 18 18 18 18 
18 18 18 18 18 18 18 18 18 
18 18 14 14 14 14 14 14 14 
14 14 14 14 14 14 14 14 14 
14 14 14 14 14 14 14 14 14 
14 1 1 1 1 1 1 1 1 
1 1 18 18 18 18 18 18 18 
18 18 18 18 18 18 18 18 18 
18 18 18 18 18 18 18 18 18 
18 18 18 18 14 14 14 14 14 
14 14 14 14 14 14 14 14 14 
14 14 14 14 14 14 14 14 14 
14 14 14 1 1 1 1 1 1 
1 1 1 1 
