# vtk DataFile Version 2.0
converted output from test_microstructure.vtk
ASCII
DATASET UNSTRUCTURED_GRID

POINTS 65536 double
0.0 0.0 0.0
0.5 0.0 0.0
0.0 0.5 0.0
0.5 0.5 0.0
0.5 0.0 0.0
1.0 0.0 0.0
0.5 0.5 0.0
1.0 0.5 0.0
1.0 0.0 0.0
1.5 0.0 0.0
1.0 0.5 0.0
1.5 0.5 0.0
1.5 0.0 0.0
2.0 0.0 0.0
1.5 0.5 0.0
2.0 0.5 0.0
2.0 0.0 0.0
2.5 0.0 0.0
2.0 0.5 0.0
2.5 0.5 0.0
2.5 0.0 0.0
3.0 0.0 0.0
2.5 0.5 0.0
3.0 0.5 0.0
3.0 0.0 0.0
3.5 0.0 0.0
3.0 0.5 0.0
3.5 0.5 0.0
3.5 0.0 0.0
4.0 0.0 0.0
3.5 0.5 0.0
4.0 0.5 0.0
4.0 0.0 0.0
4.5 0.0 0.0
4.0 0.5 0.0
4.5 0.5 0.0
4.5 0.0 0.0
5.0 0.0 0.0
4.5 0.5 0.0
5.0 0.5 0.0
5.0 0.0 0.0
5.5 0.0 0.0
5.0 0.5 0.0
5.5 0.5 0.0
5.5 0.0 0.0
6.0 0.0 0.0
5.5 0.5 0.0
6.0 0.5 0.0
6.0 0.0 0.0
6.5 0.0 0.0
6.0 0.5 0.0
6.5 0.5 0.0
6.5 0.0 0.0
7.0 0.0 0.0
6.5 0.5 0.0
7.0 0.5 0.0
7.0 0.0 0.0
7.5 0.0 0.0
7.0 0.5 0.0
7.5 0.5 0.0
7.5 0.0 0.0
8.0 0.0 0.0
7.5 0.5 0.0
8.0 0.5 0.0
8.0 0.0 0.0
8.5 0.0 0.0
8.0 0.5 0.0
8.5 0.5 0.0
8.5 0.0 0.0
9.0 0.0 0.0
8.5 0.5 0.0
9.0 0.5 0.0
9.0 0.0 0.0
9.5 0.0 0.0
9.0 0.5 0.0
9.5 0.5 0.0
9.5 0.0 0.0
10.0 0.0 0.0
9.5 0.5 0.0
10.0 0.5 0.0
10.0 0.0 0.0
10.5 0.0 0.0
10.0 0.5 0.0
10.5 0.5 0.0
10.5 0.0 0.0
11.0 0.0 0.0
10.5 0.5 0.0
11.0 0.5 0.0
11.0 0.0 0.0
11.5 0.0 0.0
11.0 0.5 0.0
11.5 0.5 0.0
11.5 0.0 0.0
12.0 0.0 0.0
11.5 0.5 0.0
12.0 0.5 0.0
12.0 0.0 0.0
12.5 0.0 0.0
12.0 0.5 0.0
12.5 0.5 0.0
12.5 0.0 0.0
13.0 0.0 0.0
12.5 0.5 0.0
13.0 0.5 0.0
13.0 0.0 0.0
13.5 0.0 0.0
13.0 0.5 0.0
13.5 0.5 0.0
13.5 0.0 0.0
14.0 0.0 0.0
13.5 0.5 0.0
14.0 0.5 0.0
14.0 0.0 0.0
14.5 0.0 0.0
14.0 0.5 0.0
14.5 0.5 0.0
14.5 0.0 0.0
15.0 0.0 0.0
14.5 0.5 0.0
15.0 0.5 0.0
15.0 0.0 0.0
15.5 0.0 0.0
15.0 0.5 0.0
15.5 0.5 0.0
15.5 0.0 0.0
16.0 0.0 0.0
15.5 0.5 0.0
16.0 0.5 0.0
16.0 0.0 0.0
16.5 0.0 0.0
16.0 0.5 0.0
16.5 0.5 0.0
16.5 0.0 0.0
17.0 0.0 0.0
16.5 0.5 0.0
17.0 0.5 0.0
17.0 0.0 0.0
17.5 0.0 0.0
17.0 0.5 0.0
17.5 0.5 0.0
17.5 0.0 0.0
18.0 0.0 0.0
17.5 0.5 0.0
18.0 0.5 0.0
18.0 0.0 0.0
18.5 0.0 0.0
18.0 0.5 0.0
18.5 0.5 0.0
18.5 0.0 0.0
19.0 0.0 0.0
18.5 0.5 0.0
19.0 0.5 0.0
19.0 0.0 0.0
19.5 0.0 0.0
19.0 0.5 0.0
19.5 0.5 0.0
19.5 0.0 0.0
20.0 0.0 0.0
19.5 0.5 0.0
20.0 0.5 0.0
20.0 0.0 0.0
20.5 0.0 0.0
20.0 0.5 0.0
20.5 0.5 0.0
20.5 0.0 0.0
21.0 0.0 0.0
20.5 0.5 0.0
21.0 0.5 0.0
21.0 0.0 0.0
21.5 0.0 0.0
21.0 0.5 0.0
21.5 0.5 0.0
21.5 0.0 0.0
22.0 0.0 0.0
21.5 0.5 0.0
22.0 0.5 0.0
22.0 0.0 0.0
22.5 0.0 0.0
22.0 0.5 0.0
22.5 0.5 0.0
22.5 0.0 0.0
23.0 0.0 0.0
22.5 0.5 0.0
23.0 0.5 0.0
23.0 0.0 0.0
23.5 0.0 0.0
23.0 0.5 0.0
23.5 0.5 0.0
23.5 0.0 0.0
24.0 0.0 0.0
23.5 0.5 0.0
24.0 0.5 0.0
24.0 0.0 0.0
24.5 0.0 0.0
24.0 0.5 0.0
24.5 0.5 0.0
24.5 0.0 0.0
25.0 0.0 0.0
24.5 0.5 0.0
25.0 0.5 0.0
25.0 0.0 0.0
25.5 0.0 0.0
25.0 0.5 0.0
25.5 0.5 0.0
25.5 0.0 0.0
26.0 0.0 0.0
25.5 0.5 0.0
26.0 0.5 0.0
26.0 0.0 0.0
26.5 0.0 0.0
26.0 0.5 0.0
26.5 0.5 0.0
26.5 0.0 0.0
27.0 0.0 0.0
26.5 0.5 0.0
27.0 0.5 0.0
27.0 0.0 0.0
27.5 0.0 0.0
27.0 0.5 0.0
27.5 0.5 0.0
27.5 0.0 0.0
28.0 0.0 0.0
27.5 0.5 0.0
28.0 0.5 0.0
28.0 0.0 0.0
28.5 0.0 0.0
28.0 0.5 0.0
28.5 0.5 0.0
28.5 0.0 0.0
29.0 0.0 0.0
28.5 0.5 0.0
29.0 0.5 0.0
29.0 0.0 0.0
29.5 0.0 0.0
29.0 0.5 0.0
29.5 0.5 0.0
29.5 0.0 0.0
30.0 0.0 0.0
29.5 0.5 0.0
30.0 0.5 0.0
30.0 0.0 0.0
30.5 0.0 0.0
30.0 0.5 0.0
30.5 0.5 0.0
30.5 0.0 0.0
31.0 0.0 0.0
30.5 0.5 0.0
31.0 0.5 0.0
31.0 0.0 0.0
31.5 0.0 0.0
31.0 0.5 0.0
31.5 0.5 0.0
31.5 0.0 0.0
32.0 0.0 0.0
31.5 0.5 0.0
32.0 0.5 0.0
32.0 0.0 0.0
32.5 0.0 0.0
32.0 0.5 0.0
32.5 0.5 0.0
32.5 0.0 0.0
33.0 0.0 0.0
32.5 0.5 0.0
33.0 0.5 0.0
33.0 0.0 0.0
33.5 0.0 0.0
33.0 0.5 0.0
33.5 0.5 0.0
33.5 0.0 0.0
34.0 0.0 0.0
33.5 0.5 0.0
34.0 0.5 0.0
34.0 0.0 0.0
34.5 0.0 0.0
34.0 0.5 0.0
34.5 0.5 0.0
34.5 0.0 0.0
35.0 0.0 0.0
34.5 0.5 0.0
35.0 0.5 0.0
35.0 0.0 0.0
35.5 0.0 0.0
35.0 0.5 0.0
35.5 0.5 0.0
35.5 0.0 0.0
36.0 0.0 0.0
35.5 0.5 0.0
36.0 0.5 0.0
36.0 0.0 0.0
36.5 0.0 0.0
36.0 0.5 0.0
36.5 0.5 0.0
36.5 0.0 0.0
37.0 0.0 0.0
36.5 0.5 0.0
37.0 0.5 0.0
37.0 0.0 0.0
37.5 0.0 0.0
37.0 0.5 0.0
37.5 0.5 0.0
37.5 0.0 0.0
38.0 0.0 0.0
37.5 0.5 0.0
38.0 0.5 0.0
38.0 0.0 0.0
38.5 0.0 0.0
38.0 0.5 0.0
38.5 0.5 0.0
38.5 0.0 0.0
39.0 0.0 0.0
38.5 0.5 0.0
39.0 0.5 0.0
39.0 0.0 0.0
39.5 0.0 0.0
39.0 0.5 0.0
39.5 0.5 0.0
39.5 0.0 0.0
40.0 0.0 0.0
39.5 0.5 0.0
40.0 0.5 0.0
40.0 0.0 0.0
40.5 0.0 0.0
40.0 0.5 0.0
40.5 0.5 0.0
40.5 0.0 0.0
41.0 0.0 0.0
40.5 0.5 0.0
41.0 0.5 0.0
41.0 0.0 0.0
41.5 0.0 0.0
41.0 0.5 0.0
41.5 0.5 0.0
41.5 0.0 0.0
42.0 0.0 0.0
41.5 0.5 0.0
42.0 0.5 0.0
42.0 0.0 0.0
42.5 0.0 0.0
42.0 0.5 0.0
42.5 0.5 0.0
42.5 0.0 0.0
43.0 0.0 0.0
42.5 0.5 0.0
43.0 0.5 0.0
43.0 0.0 0.0
43.5 0.0 0.0
43.0 0.5 0.0
43.5 0.5 0.0
43.5 0.0 0.0
44.0 0.0 0.0
43.5 0.5 0.0
44.0 0.5 0.0
44.0 0.0 0.0
44.5 0.0 0.0
44.0 0.5 0.0
44.5 0.5 0.0
44.5 0.0 0.0
45.0 0.0 0.0
44.5 0.5 0.0
45.0 0.5 0.0
45.0 0.0 0.0
45.5 0.0 0.0
45.0 0.5 0.0
45.5 0.5 0.0
45.5 0.0 0.0
46.0 0.0 0.0
45.5 0.5 0.0
46.0 0.5 0.0
46.0 0.0 0.0
46.5 0.0 0.0
46.0 0.5 0.0
46.5 0.5 0.0
46.5 0.0 0.0
47.0 0.0 0.0
46.5 0.5 0.0
47.0 0.5 0.0
47.0 0.0 0.0
47.5 0.0 0.0
47.0 0.5 0.0
47.5 0.5 0.0
47.5 0.0 0.0
48.0 0.0 0.0
47.5 0.5 0.0
48.0 0.5 0.0
48.0 0.0 0.0
48.5 0.0 0.0
48.0 0.5 0.0
48.5 0.5 0.0
48.5 0.0 0.0
49.0 0.0 0.0
48.5 0.5 0.0
49.0 0.5 0.0
49.0 0.0 0.0
49.5 0.0 0.0
49.0 0.5 0.0
49.5 0.5 0.0
49.5 0.0 0.0
50.0 0.0 0.0
49.5 0.5 0.0
50.0 0.5 0.0
50.0 0.0 0.0
50.5 0.0 0.0
50.0 0.5 0.0
50.5 0.5 0.0
50.5 0.0 0.0
51.0 0.0 0.0
50.5 0.5 0.0
51.0 0.5 0.0
51.0 0.0 0.0
51.5 0.0 0.0
51.0 0.5 0.0
51.5 0.5 0.0
51.5 0.0 0.0
52.0 0.0 0.0
51.5 0.5 0.0
52.0 0.5 0.0
52.0 0.0 0.0
52.5 0.0 0.0
52.0 0.5 0.0
52.5 0.5 0.0
52.5 0.0 0.0
53.0 0.0 0.0
52.5 0.5 0.0
53.0 0.5 0.0
53.0 0.0 0.0
53.5 0.0 0.0
53.0 0.5 0.0
53.5 0.5 0.0
53.5 0.0 0.0
54.0 0.0 0.0
53.5 0.5 0.0
54.0 0.5 0.0
54.0 0.0 0.0
54.5 0.0 0.0
54.0 0.5 0.0
54.5 0.5 0.0
54.5 0.0 0.0
55.0 0.0 0.0
54.5 0.5 0.0
55.0 0.5 0.0
55.0 0.0 0.0
55.5 0.0 0.0
55.0 0.5 0.0
55.5 0.5 0.0
55.5 0.0 0.0
56.0 0.0 0.0
55.5 0.5 0.0
56.0 0.5 0.0
56.0 0.0 0.0
56.5 0.0 0.0
56.0 0.5 0.0
56.5 0.5 0.0
56.5 0.0 0.0
57.0 0.0 0.0
56.5 0.5 0.0
57.0 0.5 0.0
57.0 0.0 0.0
57.5 0.0 0.0
57.0 0.5 0.0
57.5 0.5 0.0
57.5 0.0 0.0
58.0 0.0 0.0
57.5 0.5 0.0
58.0 0.5 0.0
58.0 0.0 0.0
58.5 0.0 0.0
58.0 0.5 0.0
58.5 0.5 0.0
58.5 0.0 0.0
59.0 0.0 0.0
58.5 0.5 0.0
59.0 0.5 0.0
59.0 0.0 0.0
59.5 0.0 0.0
59.0 0.5 0.0
59.5 0.5 0.0
59.5 0.0 0.0
60.0 0.0 0.0
59.5 0.5 0.0
60.0 0.5 0.0
60.0 0.0 0.0
60.5 0.0 0.0
60.0 0.5 0.0
60.5 0.5 0.0
60.5 0.0 0.0
61.0 0.0 0.0
60.5 0.5 0.0
61.0 0.5 0.0
61.0 0.0 0.0
61.5 0.0 0.0
61.0 0.5 0.0
61.5 0.5 0.0
61.5 0.0 0.0
62.0 0.0 0.0
61.5 0.5 0.0
62.0 0.5 0.0
62.0 0.0 0.0
62.5 0.0 0.0
62.0 0.5 0.0
62.5 0.5 0.0
62.5 0.0 0.0
63.0 0.0 0.0
62.5 0.5 0.0
63.0 0.5 0.0
63.0 0.0 0.0
63.5 0.0 0.0
63.0 0.5 0.0
63.5 0.5 0.0
63.5 0.0 0.0
64.0 0.0 0.0
63.5 0.5 0.0
64.0 0.5 0.0
0.0 0.5 0.0
0.5 0.5 0.0
0.0 1.0 0.0
0.5 1.0 0.0
0.5 0.5 0.0
1.0 0.5 0.0
0.5 1.0 0.0
1.0 1.0 0.0
1.0 0.5 0.0
1.5 0.5 0.0
1.0 1.0 0.0
1.5 1.0 0.0
1.5 0.5 0.0
2.0 0.5 0.0
1.5 1.0 0.0
2.0 1.0 0.0
2.0 0.5 0.0
2.5 0.5 0.0
2.0 1.0 0.0
2.5 1.0 0.0
2.5 0.5 0.0
3.0 0.5 0.0
2.5 1.0 0.0
3.0 1.0 0.0
3.0 0.5 0.0
3.5 0.5 0.0
3.0 1.0 0.0
3.5 1.0 0.0
3.5 0.5 0.0
4.0 0.5 0.0
3.5 1.0 0.0
4.0 1.0 0.0
4.0 0.5 0.0
4.5 0.5 0.0
4.0 1.0 0.0
4.5 1.0 0.0
4.5 0.5 0.0
5.0 0.5 0.0
4.5 1.0 0.0
5.0 1.0 0.0
5.0 0.5 0.0
5.5 0.5 0.0
5.0 1.0 0.0
5.5 1.0 0.0
5.5 0.5 0.0
6.0 0.5 0.0
5.5 1.0 0.0
6.0 1.0 0.0
6.0 0.5 0.0
6.5 0.5 0.0
6.0 1.0 0.0
6.5 1.0 0.0
6.5 0.5 0.0
7.0 0.5 0.0
6.5 1.0 0.0
7.0 1.0 0.0
7.0 0.5 0.0
7.5 0.5 0.0
7.0 1.0 0.0
7.5 1.0 0.0
7.5 0.5 0.0
8.0 0.5 0.0
7.5 1.0 0.0
8.0 1.0 0.0
8.0 0.5 0.0
8.5 0.5 0.0
8.0 1.0 0.0
8.5 1.0 0.0
8.5 0.5 0.0
9.0 0.5 0.0
8.5 1.0 0.0
9.0 1.0 0.0
9.0 0.5 0.0
9.5 0.5 0.0
9.0 1.0 0.0
9.5 1.0 0.0
9.5 0.5 0.0
10.0 0.5 0.0
9.5 1.0 0.0
10.0 1.0 0.0
10.0 0.5 0.0
10.5 0.5 0.0
10.0 1.0 0.0
10.5 1.0 0.0
10.5 0.5 0.0
11.0 0.5 0.0
10.5 1.0 0.0
11.0 1.0 0.0
11.0 0.5 0.0
11.5 0.5 0.0
11.0 1.0 0.0
11.5 1.0 0.0
11.5 0.5 0.0
12.0 0.5 0.0
11.5 1.0 0.0
12.0 1.0 0.0
12.0 0.5 0.0
12.5 0.5 0.0
12.0 1.0 0.0
12.5 1.0 0.0
12.5 0.5 0.0
13.0 0.5 0.0
12.5 1.0 0.0
13.0 1.0 0.0
13.0 0.5 0.0
13.5 0.5 0.0
13.0 1.0 0.0
13.5 1.0 0.0
13.5 0.5 0.0
14.0 0.5 0.0
13.5 1.0 0.0
14.0 1.0 0.0
14.0 0.5 0.0
14.5 0.5 0.0
14.0 1.0 0.0
14.5 1.0 0.0
14.5 0.5 0.0
15.0 0.5 0.0
14.5 1.0 0.0
15.0 1.0 0.0
15.0 0.5 0.0
15.5 0.5 0.0
15.0 1.0 0.0
15.5 1.0 0.0
15.5 0.5 0.0
16.0 0.5 0.0
15.5 1.0 0.0
16.0 1.0 0.0
16.0 0.5 0.0
16.5 0.5 0.0
16.0 1.0 0.0
16.5 1.0 0.0
16.5 0.5 0.0
17.0 0.5 0.0
16.5 1.0 0.0
17.0 1.0 0.0
17.0 0.5 0.0
17.5 0.5 0.0
17.0 1.0 0.0
17.5 1.0 0.0
17.5 0.5 0.0
18.0 0.5 0.0
17.5 1.0 0.0
18.0 1.0 0.0
18.0 0.5 0.0
18.5 0.5 0.0
18.0 1.0 0.0
18.5 1.0 0.0
18.5 0.5 0.0
19.0 0.5 0.0
18.5 1.0 0.0
19.0 1.0 0.0
19.0 0.5 0.0
19.5 0.5 0.0
19.0 1.0 0.0
19.5 1.0 0.0
19.5 0.5 0.0
20.0 0.5 0.0
19.5 1.0 0.0
20.0 1.0 0.0
20.0 0.5 0.0
20.5 0.5 0.0
20.0 1.0 0.0
20.5 1.0 0.0
20.5 0.5 0.0
21.0 0.5 0.0
20.5 1.0 0.0
21.0 1.0 0.0
21.0 0.5 0.0
21.5 0.5 0.0
21.0 1.0 0.0
21.5 1.0 0.0
21.5 0.5 0.0
22.0 0.5 0.0
21.5 1.0 0.0
22.0 1.0 0.0
22.0 0.5 0.0
22.5 0.5 0.0
22.0 1.0 0.0
22.5 1.0 0.0
22.5 0.5 0.0
23.0 0.5 0.0
22.5 1.0 0.0
23.0 1.0 0.0
23.0 0.5 0.0
23.5 0.5 0.0
23.0 1.0 0.0
23.5 1.0 0.0
23.5 0.5 0.0
24.0 0.5 0.0
23.5 1.0 0.0
24.0 1.0 0.0
24.0 0.5 0.0
24.5 0.5 0.0
24.0 1.0 0.0
24.5 1.0 0.0
24.5 0.5 0.0
25.0 0.5 0.0
24.5 1.0 0.0
25.0 1.0 0.0
25.0 0.5 0.0
25.5 0.5 0.0
25.0 1.0 0.0
25.5 1.0 0.0
25.5 0.5 0.0
26.0 0.5 0.0
25.5 1.0 0.0
26.0 1.0 0.0
26.0 0.5 0.0
26.5 0.5 0.0
26.0 1.0 0.0
26.5 1.0 0.0
26.5 0.5 0.0
27.0 0.5 0.0
26.5 1.0 0.0
27.0 1.0 0.0
27.0 0.5 0.0
27.5 0.5 0.0
27.0 1.0 0.0
27.5 1.0 0.0
27.5 0.5 0.0
28.0 0.5 0.0
27.5 1.0 0.0
28.0 1.0 0.0
28.0 0.5 0.0
28.5 0.5 0.0
28.0 1.0 0.0
28.5 1.0 0.0
28.5 0.5 0.0
29.0 0.5 0.0
28.5 1.0 0.0
29.0 1.0 0.0
29.0 0.5 0.0
29.5 0.5 0.0
29.0 1.0 0.0
29.5 1.0 0.0
29.5 0.5 0.0
30.0 0.5 0.0
29.5 1.0 0.0
30.0 1.0 0.0
30.0 0.5 0.0
30.5 0.5 0.0
30.0 1.0 0.0
30.5 1.0 0.0
30.5 0.5 0.0
31.0 0.5 0.0
30.5 1.0 0.0
31.0 1.0 0.0
31.0 0.5 0.0
31.5 0.5 0.0
31.0 1.0 0.0
31.5 1.0 0.0
31.5 0.5 0.0
32.0 0.5 0.0
31.5 1.0 0.0
32.0 1.0 0.0
32.0 0.5 0.0
32.5 0.5 0.0
32.0 1.0 0.0
[...]
POINT_DATA 65536
SCALARS FeatureIds double 1
LOOKUP_TABLE default
14 14 14 14 14 14 14 14 14 14 14 14 14 14 14 14 14 14 14 14 14 14 14 14 14 14 14 14 14 14 14 14 14 14 14 14 14 14 14 14 14 14 14 14 14 14 14 14 14 14 14 14 14 14 14 14 14 14 14 14 14 14 14 14 14 14 14 14 14 14 14 14 14 14 14 14 14 14 14 14 14 14 14 14 14 14 14 14 14 14 14 14 14 14 14 14 14 14 14 14 14 14 14 14 14 14 14 14 14 14 14 14 14 82 14 82 82 82 82 82 82 82 82 82 82 82 82 82 82 82 82 82 82 82 82 82 82 82 82 82 82 82 82 82 82 82 82 82 82 82 82 82 82 82 82 82 82 82 82 82 82 82 82 82 82 253 82 82 253 253 82 253 253 253 253 253 253 253 253 253 253 253 253 253 253 253 253 253 253 253 253 253 253 253 253 253 253 253 253 253 253 253 253 253 253 253 253 253 253 253 253 253 253 253 253 253 253 253 253 253 253 253 253 253 253 253 253 253 253 253 253 253 253 253 253 253 253 211 253 253 211 211 253 211 211 211 211 211 211 211 211 211 211 211 211 211 211 211 211 211 211 211 211 211 211 211 211 211 211 211 211 211 211 211 211 211 211 211 211 211 211 211 211 211 211 211 211 211 211 211 211 211 211 211 211 211 211 211 211 211 211 143 211 143 143 143 143 143 143 143 143 143 143 143 143 143 143 143 143 143 143 143 143 143 143 143 143 143 143 143 143 143 143 143 143 143 143 143 143 143 143 143 143 143 143 143 143 143 143 143 143 143 143 143 143 143 143 143 143 143 143 143 143 143 143 143 143 143 143 143 143 143 143 143 143 143 143 143 143 143 143 143 143 143 143 143 143 143 143 143 143 143 143 143 143 143 143 143 143 143 143 143 143 143 143 143 143 143 143 143 143 143 143 143 143 143 143 143 143 143 143 7 143 7 7 7 7 7 7 7 7 7 7 7 7 7 7 7 7 7 7 7 7 7 7 7 7 7 7 7 7 7 7 7 7 7 7 7 7 7 7 7 7 7 7 7 7 7 7 7 7 7 7 7 7 7 7 7 7 7 7 7 7 7 7 7 7 7 7 7 7 7 7 7 7 7 7 7 7 7 7 7 7 7 7 7 7 7 7 7 7 7 14 14 14 14 14 14 14 14 14 14 14 14 14 14 14 14 14 14 14 14 14 14 14 14 14 14 14 14 14 14 14 14 14 14 14 14 14 14 14 14 14 14 14 14 14 14 14 14 14 14 14 14 14 14 14 14 14 14 14 14 14 14 14 14 14 14 14 14 14 14 14 14 14 14 14 14 14 14 14 14 14 14 14 14 14 14 14 14 14 14 14 14 14 14 14 14 14 14 14 14 14 14 14 14 14 14 14 14 14 14 14 82 14 82 82 82 82 82 82 82 82 82 82 82 82 82 82 82 82 82 82 82 82 82 82 82 82 82 82 82 82 82 82 82 82 82 82 82 82 82 82 82 82 82 82 82 82 82 82 82 82 82 82 82 82 82 82 82 82 253 82 82 253 253 82 253 253 253 253 253 253 253 253 253 253 253 253 253 253 253 253 253 253 253 253 253 253 253 253 253 253 253 253 253 253 253 253 253 253 253 253 253 253 253 253 253 253 253 253 253 253 253 253 253 253 253 253 253 253 253 253 253 253 253 253 253 253 253 253 253 253 211 253 211 211 211 211 211 211 211 211 211 211 211 211 211 211 211 211 211 211 211 211 211 211 211 211 211 211 211 211 211 211 211 211 211 211 211 211 211 211 211 211 211 211 211 211 211 211 211 211 211 211 211 211 211 211 211 211 211 211 143 211 143 143 143 143 143 143 143 143 143 143 143 143 143 143 143 143 143 143 143 143 143 143 143 143 143 143 143 143 143 143 143 143 143 143 143 143 143 143 143 143 143 143 143 143 143 143 143 143 143 143 143 143 143 143 143 143 143 143 143 143 143 143 143 143 143 143 143 143 143 143 143 143 143 143 143 143 143 143 143 143 143 143 143 143 143 143 143 143 143 143 143 143 143 143 143 143 143 143 143 143 143 143 143 143 143 143 143 143 143 143 143 143 143 143 143 143 143 143 7 143 7 7 7 7 7 7 7 7 7 7 7 7 7 7 7 7 7 7 7 7 7 7 7 7 7 7 7 7 7 7 7 7 7 7 7 7 7 7 7 7 7 7 7 7 7 7 7 7 7 7 7 7 7 7 7 7 7 7 7 7 7 7 7 7 7 7 7 7 7 7 7 7 7 7 7 7 7 7 7 7 7 7 7 7 7 7 7 7 7 14 14 14 14 14 14 14 14 14 14 14 14 14 14 14 14 14 14 14 14 14 14 14 14 14 14 14 14 14 14 14 14 14 14 14 14 14 14 14 14 14 14 14 14 14 14 14 14 14 14 14 14 14 14 14 14 14 14 14 14 14 14 14 14 14 14 14 14 14 14 14 14 14 14 14 14 14 14 14 14 14 14 14 14 14 14 14 14 14 14 14 14 14 14 14 14 14 14 14 14 14 14 14 14 14 14 14 14 14 82 14 82 82 82 82 82 82 82 82 82 82 82 82 82 82 82 82 82 82 82 82 82 82 82 82 82 82 82 82 82 82 82 82 82 82 82 82 82 82 82 82 82 82 82 82 82 82 82 82 82 82 82 82 82 82 82 82 82 82 82 82 82 82 253 82 253 253 253 253 253 253 253 253 253 253 253 253 253 253 253 253 253 253 253 253 253 253 253 253 253 253 253 253 253 253 253 253 253 253 253 253 253 253 253 253 253 253 253 253 253 253 253 253 253 253 253 253 253 253 253 253 253 253 253 253 253 253 253 253 253 253 211 253 211 211 211 211 211 211 211 211 211 211 211 211 211 211 211 211 211 211 211 211 211 211 211 211 211 211 211 211 211 211 211 211 211 211 211 211 211 211 211 211 211 211 211 211 211 211 211 211 211 211 211 211 211 211 211 211 143 211 143 143 143 143 143 143 143 143 143 143 143 143 143 143 143 143 143 143 143 143 143 143 143 143 143 143 143 143 143 143 143 143 143 143 143 143 143 143 143 143 143 143 143 143 143 143 143 143 143 143 143 143 143 143 143 143 143 143 143 143 143 143 143 143 143 143 143 143 143 143 143 143 143 143 143 143 143 143 143 143 143 143 143 143 143 143 143 143 143 143 143 143 143 143 143 143 143 143 143 143 143 143 143 143 143 143 143 143 143 143 143 143 143 143 143 143 143 143 143 143 7 143 143 7 7 143 7 7 7 7 7 7 7 7 7 7 7 7 7 7 7 7 7 7 7 7 7 7 7 7 7 7 7 7 7 7 7 7 7 7 7 7 7 7 7 7 7 7 7 7 7 7 7 7 7 7 7 7 7 7 7 7 7 7 7 7 7 7 7 7 7 7 7 7 7 7 7 7 7 7 7 7 7 7 7 7 7 7 7 7 7 14 14 14 14 14 14 14 14 14 14 14 14 14 14 14 14 14 14 14 14 14 14 14 14 14 14 14 14 14 14 14 14 14 14 14 14 14 14 14 14 14 14 14 14 14 14 14 14 14 14 14 14 14 14 14 14 14 14 14 14 14 14 14 14 14 14 14 14 14 14 14 14 14 14 14 14 14 14 14 14 14 14 14 14 14 14 14 14 14 14 14 14 14 14 14 14 14 14 14 14 14 14 14 14 14 14 14 82 14 82 82 82 82 82 82 82 82 82 82 82 82 82 82 82 82 82 82 82 82 82 82 82 82 82 82 82 82 82 82 82 82 82 82 82 82 82 82 82 82 82 82 82 82 82 82 82 82 82 82 82 82 82 82 82 82 82 82 82 82 82 82 82 82 253 82 82 253 253 82 253 253 253 253 253 253 253 253 253 253 253 253 253 253 253 253 253 253 253 253 253 253 253 253 253 253 253 253 253 253 253 253 253 253 253 253 253 253 253 253 253 253 253 253 253 253 253 253 253 253 253 253 253 253 253 253 253 253 253 253 253 253 211 253 211 211 211 211 211 211 211 211 211 211 211 211 211 211 211 211 211 211 211 211 211 211 211 211 211 211 211 211 211 211 211 211 211 211 211 211 211 211 211 211 211 211 211 211 211 211 211 211 211 211 211 211 211 211 143 211 143 143 143 143 143 143 143 143 143 143 143 143 143 143 143 143 143 143 143 143 143 143 143 143 143 143 143 143 143 143 143 143 143 143 143 143 143 143 143 143 143 143 143 143 143 143 143 143 143 143 143 143 143 143 143 143 143 143 143 143 143 143 143 143 143 143 143 143 143 143 143 143 143 143 143 143 143 143 143 143 143 143 143 143 143 143 143 143 143 143 143 143 143 143 143 143 143 143 143 143 143 143 143 143 143 143 143 143 143 143 143 143 143 143 143 143 143 143 143 143 143 143 143 143 143 143 7 143 7 7 7 7 7 7 7 7 7 7 7 7 7 7 7 7 7 7 7 7 7 7 7 7 7 7 7 7 7 7 7 7 7 7 7 7 7 7 7 7 7 7 7 7 7 7 7 7 7 7 7 7 7 7 7 7 7 7 7 7 7 7 7 7 7 7 7 7 7 7 7 7 7 7 7 7 7 7 7 7 7 7 7 7 7 14 14 14 14 14 14 14 14 14 14 14 14 14 14 14 14 14 14 14 14 14 14 14 14 14 14 14 14 14 14 14 14 14 14 14 14 14 14 14 14 14 14 14 14 14 14 14 14 14 14 14 14 14 14 14 14 14 14 14 14 14 14 14 14 14 14 14 14 14 14 14 14 14 14 14 14 14 14 14 14 14 14 14 14 14 14 14 14 14 14 14 14 14 14 14 14 14 14 14 14 14 14 14 14 14 82 14 82 82 82 82 82 82 82 82 82 82 82 82 82 82 82 82 82 82 82 82 82 82 82 82 82 82 82 82 82 82 82 82 82 82 82 82 82 82 82 82 82 82 82 82 82 82 82 82 82 82 82 82 82 82 82 82 82 82 82 82 82 82 82 82 82 82 82 82 82 82 253 82 82 253 253 82 253 253 253 253 253 253 253 253 253 253 253 253 253 253 253 253 253 253 253 253 253 253 253 253 253 253 253 253 253 253 253 253 253 253 253 253 253 253 253 253 253 253 253 253 253 253 253 253 253 253 253 253 253 253 253 253 253 253 211 253 211 211 211 211 211 211 211 211 211 211 211 211 211 211 211 211 211 211 211 211 211 211 211 211 211 211 211 211 211 211 211 211 211 211 211 211 211 211 211 211 211 211 211 211 211 211 211 211 211 211 211 211 143 211 143 143 143 143 143 143 143 143 143 143 143 143 143 143 143 143 143 143 143 143 143 143 143 143 143 143 143 143 143 143 143 143 143 143 143 143 143 143 143 143 143 143 143 143 143 143 143 143 143 143 143 143 143 143 143 143 143 143 143 143 143 143 143 143 143 143 143 143 143 143 143 143 143 143 143 143 143 143 143 143 143 143 143 143 143 143 143 143 143 143 143 143 143 143 143 143 143 143 143 143 143 143 143 143 143 143 143 143 143 143 143 143 143 143 143 143 143 143 143 143 143 143 143 143 143 143 143 143 7 143 7 7 7 7 7 7 7 7 7 7 7 7 7 7 7 7 7 7 7 7 7 7 7 7 7 7 7 7 7 7 7 7 7 7 7 7 7 7 7 7 7 7 7 7 7 7 7 7 7 7 7 7 7 7 7 7 7 7 7 7 7 7 7 7 7 7 7 7 7 7 7 7 7 7 7 7 7 7 7 7 7 7 7 7 7 14 14 14 14 14 14 14 14 14 14 14 14 14 14 14 14 14 14 14 14 14 14 14 14 14 14 14 14 14 14 14 14 14 14 14 14 14 14 14 14 14 14 14 14 14 14 14 14 14 14 14 14 14 14 14 14 14 14 14 14 14 14 14 14 14 14 14 14 14 14 14 14 14 14 14 14 14 14 14 14 14 14 14 14 14 14 14 14 14 14 14 14 14 14 14 14 14 14 14 14 14 14 14 14 14 82 14 82 82 82 82 82 82 82 82 82 82 82 82 82 82 82 82 82 82 82 82 82 82 82 82 82 82 82 82 82 82 82 82 82 82 82 82 82 82 82 82 82 82 82 82 82 82 82 82 82 82 82 82 82 82 82 82 82 82 82 82 82 82 82 82 82 82 82 82 82 82 82 82 82 82 253 82 253 253 253 253 253 253 253 253 253 253 253 253 253 253 253 253 253 253 253 253 253 253 253 253 253 253 253 253 253 253 253 253 253 253 253 253 253 253 253 253 253 253 253 253 253 253 253 253 253 253 253 253 253 253 253 253 253 253 211 253 211 211 211 211 211 211 211 211 211 211 211 211 211 211 211 211 211 211 211 211 211 211 211 211 211 211 211 211 211 211 211 211 211 211 211 211 211 211 211 211 211 211 211 211 211 211 211 211 211 211 143 211 143 143 143 143 143 143 143 143 143 143 143 143 143 143 143 143 143 143 143 143 143 143 143 143 143 143 143 143 143 143 143 143 143 143 143 143 143 143 143 143 143 143 143 143 143 143 143 143 143 143 143 143 143 143 143 143 143 143 143 143 143 143 143 143 143 143 143 143 143 143 143 143 143 143 143 143 143 143 143 143 143 143 143 143 143 143 143 143 143 143 143 143 143 143 143 143 143 143 143 143 143 143 143 143 143 143 143 143 143 143 143 143 143 143 143 143 143 143 143 143 143 143 143 143 143 143 143 143 143 143 7 143 143 7 7 143 7 7 7 7 7 7 7 7 7 7 7 7 7 7 7 7 7 7 7 7 7 7 7 7 7 7 7 7 7 7 7 7 7 7 7 7 7 7 7 7 7 7 7 7 7 7 7 7 7 7 7 7 7 7 7 7 7 7 7 7 7 7 7 7 7 7 7 7 7 7 7 7 7 7 7 7 7 7 7 7 7 14 14 14 14 14 14 14 14 14 14 14 14 14 14 14 14 14 14 14 14 14 14 14 14 14 14 14 14 14 14 14 14 14 14 14 14 14 14 14 14 14 14 14 14 14 14 14 14 14 14 14 14 14 14 14 14 14 14 14 14 14 14 14 14 14 14 14 14 14 14 14 14 14 14 14 14 14 14 14 14 14 14 14 14 14 14 14 14 14 14 14 14 14 14 14 14 14 14 14 14 14 14 14 82 14 82 82 82 82 82 82 82 82 82 82 82 82 82 82 82 82 82 82 82 82 82 82 82 82 82 82 82 82 82 82 82 82 82 82 82 82 82 82 82 82 82 82 82 82 82 82 82 82 82 82 82 82 82 82 82 82 82 82 82 82 82 82 82 82 82 82 82 82 82 82 82 82 82 82 82 82 253 82 82 253 253 82 253 253 253 253 253 253 253 253 253 253 253 253 253 253 253 253 253 253 253 253 253 253 253 253 253 253 253 253 253 253 253 253 253 253 253 253 253 253 253 253 253 253 253 253 253 253 253 253 253 253 253 253 253 253 211 253 211 211 211 211 211 211 211 211 211 211 211 211 211 211 211 211 211 211 211 211 211 211 211 211 211 211 211 211 211 211 211 211 211 211 211 211 211 211 211 211 211 211 211 211 211 211 211 211 143 211 143 143 143 143 143 143 143 143 143 143 143 143 143 143 143 143 143 143 143 143 143 143 143 143 143 143 143 143 143 143 143 143 143 143 143 143 143 143 143 143 143 143 143 143 143 143 143 143 143 143 143 143 143 143 143 143 143 143 143 143 143 143 143 143 143 143 143 143 143 143 143 143 143 143 143 143 143 143 143 143 143 143 143 143 143 143 143 143 143 143 143 143 143 143 143 143 143 143 143 143 143 143 143 143 143 143 143 143 143 143 143 143 143 143 143 143 143 143 143 143 143 143 143 143 143 143 143 143 143 143 143 143 143 143 143 143 7 143 7 7 7 7 7 7 7 7 7 7 7 7 7 7 7 7 7 7 7 7 7 7 7 7 7 7 7 7 7 7 7 7 7 7 7 7 7 7 7 7 7 7 7 7 7 7 7 7 7 7 7 7 7 7 7 7 7 7 7 7 7 7 7 7 7 7 7 7 7 7 7 7 7 7 7 7 7 7 7 7 7 14 14 14 14 14 14 14 14 14 14 14 14 14 14 14 14 14 14 14 14 14 14 14 14 14 14 14 14 14 14 14 14 14 14 14 14 14 14 14 14 14 14 14 14 14 14 14 14 14 14 14 14 14 14 14 14 14 14 14 14 14 14 14 14 14 14 14 14 14 14 14 14 14 14 14 14 14 14 14 14 14 14 14 14 14 14 14 14 14 14 14 14 14 14 14 14 14 14 14 14 14 82 14 82 82 82 82 82 82 82 82 82 82 82 82 82 82 82 82 82 82 82 82 82 82 82 82 82 82 82 82 82 82 82 82 82 82 82 82 82 82 82 82 82 82 82 82 82 82 82 82 82 82 82 82 82 82 82 82 82 82 82 82 82 82 82 82 82 82 82 82 82 82 82 82 82 82 82 82 82 82 82 82 82 82 253 82 82 253 253 82 253 253 253 253 253 253 253 253 253 253 253 253 253 253 253 253 253 253 253 253 253 253 253 253 253 253 253 253 253 253 253 253 253 253 253 253 253 253 253 253 253 253 253 253 253 253 253 253 253 253 211 253 211 211 211 211 211 211 211 211 211 211 211 211 211 211 211 211 211 211 211 211 211 211 211 211 211 211 211 211 211 211 211 211 211 211 211 211 211 211 211 211 211 211 211 211 143 211 143 143 143 143 143 143 143 143 143 143 143 143 143 143 143 143 143 143 143 143 143 143 143 143 143 143 143 143 143 143 143 143 143 143 143 143 143 143 143 143 143 143 143 143 143 143 143 143 143 143 143 143 143 143 143 143 143 143 143 143 143 143 143 143 143 143 143 143 143 143 143 143 143 143 143 143 143 143 143 143 143 143 143 143 143 143 143 143 143 143 143 143 143 143 143 143 143 143 143 143 143 143 143 143 143 143 143 143 143 143 143 143 143 143 143 143 143 143 143 143 143 143 143 143 143 143 143 143 143 143 143 143 143 143 143 143 143 143 143 143 7 143 143 7 7 143 7 7 7 7 7 7 7 7 7 7 7 7 7 7 7 7 7 7 7 7 7 7 7 7 7 7 7 7 7 7 7 7 7 7 7 7 7 7 7 7 7 7 7 7 7 7 7 7 7 7 7 7 7 7 7 7 7 7 7 7 7 7 7 7 7 7 7 7 7 7 7 7 7 7 7 7 7 14 14 14 14 14 14 14 14 14 14 14 14 14 14 14 14 14 14 14 14 14 14 14 14 14 14 14 14 14 14 14 14 14 14 14 14 14 14 14 14 14 14 14 14 14 14 14 14 14 14 14 14 14 14 14 14 14 14 14 14 14 14 14 14 14 14 14 14 14 14 14 14 14 14 14 14 14 14 14 14 14 14 14 14 14 14 14 14 14 14 14 14 14 14 14 14 14 14 14 82 14 82 82 82 82 82 82 82 82 82 82 82 82 82 82 82 82 82 82 82 82 82 82 82 82 82 82 82 82 82 82 82 82 82 82 82 82 82 82 82 82 82 82 82 82 82 82 82 82 82 82 82 82 82 82 82 82 82 82 82 82 82 82 82 82 82 82 82 82 82 82 82 82 82 82 82 82 82 82 82 82 82 82 82 82 82 82 82 82 253 82 82 253 253 82 253 253 253 253 253 253 253 253 253 253 253 253 253 253 253 253 253 253 253 253 253 253 253 253 253 253 253 253 253 253 253 253 253 253 253 253 253 253 253 253 253 253 253 253 253 253 211 253 211 211 211 211 211 211 211 211 211 211 211 211 211 211 211 211 211 211 211 211 211 211 211 211 211 211 211 211 211 211 211 211 211 211 211 211 211 211 211 211 211 211 143 211 143 143 143 143 143 143 143 143 143 143 143 143 143 143 143 143 143 143 143 143 143 143 143 143 143 143 143 143 143 143 143 143 143 143 143 143 143 143 143 143 143 143 143 143 143 143 143 143 143 143 143 143 143 143 143 143 143 143 143 143 143 143 143 143 143 143 143 143 143 143 143 143 143 143 143 143 143 143 143 143 143 143 143 143 143 143 143 143 143 143 143 143 143 143 143 143 143 143 143 143 143 143 143 143 143 143 143 143 143 143 143 143 143 143 143 143 143 143 143 143 143 143 143 143 143 143 143 143 143 143 143 143 143 143 143 143 143 143 143 143 143 143 143 143 143 143 7 143 7 7 7 7 7 7 7 7 7 7 7 7 7 7 7 7 7 7 7 7 7 7 7 7 7 7 7 7 7 7 7 7 7 7 7 7 7 7 7 7 7 7 7 7 7 7 7 7 7 7 7 7 7 7 7 7 7 7 7 7 7 7 7 7 7 7 7 7 7 7 7 7 7 7 7 7 7 14 14 14 14 14 14 14 14 14 14 14 14 14 14 14 14 14 14 14 14 14 14 14 14 14 14 14 14 14 14 14 14 14 14 14 14 14 14 14 14 14 14 14 14 14 14 14 14 14 14 14 14 14 14 14 14 14 14 14 14 14 14 14 14 14 14 14 14 14 14 14 14 14 14 14 14 14 14 14 14 14 14 14 14 14 14 14 14 14 14 14 14 14 14 14 14 14 82 14 82 82 82 82 82 82 82 82 82 82 82 82 82 82 82 82 82 82 82 82 82 82 82 82 82 82 82 82 82 82 82 82 82 82 82 82 82 82 82 82 82 82 82 82 82 82 82 82 82 82 82 82 82 82 82 82 82 82 82 82 82 82 82 82 82 82 82 82 82 82 82 82 82 82 82 82 82 82 82 82 82 82 82 82 82 82 82 82 82 82 82 82 82 82 253 82 82 253 253 82 253 253 253 253 253 253 253 253 253 253 253 253 253 253 253 253 253 253 253 253 253 253 253 253 253 253 253 253 253 253 253 253 253 253 253 253 253 253 253 253 253 253 211 253 84 211 211 84 84 211 211 84 84 211 211 84 84 211 211 84 84 211 211 84 84 211 211 84 84 211 211 84 84 211 211 84 84 211 211 84 211 211 211 211 143 211 143 143 143 143 143 143 143 143 143 143 143 143 143 143 143 143 143 143 143 143 143 143 143 143 143 143 143 143 143 143 143 143 143 143 143 143 143 143 143 143 143 143 143 143 143 143 143 143 143 143 143 143 143 143 143 143 143 143 143 143 143 143 143 143 143 143 143 143 143 143 143 143 143 143 143 143 143 143 143 143 143 143 143 143 143 143 143 143 143 143 143 143 143 143 143 143 143 143 143 143 143 143 143 143 143 143 143 143 143 143 143 143 143 143 143 143 143 143 143 143 143 143 143 143 143 143 143 143 143 143 143 143 143 143 143 143 143 143 143 143 143 143 143 143 143 143 143 143 7 143 7 7 7 7 7 7 7 7 7 7 7 7 7 7 7 7 7 7 7 7 7 7 7 7 7 7 7 7 7 7 7 7 7 7 7 7 7 7 7 7 7 7 7 7 7 7 7 7 7 7 7 7 7 7 7 7 7 7 7 7 7 7 7 7 7 7 7 7 7 7 7 7 7 7 7 7 7 14 14 14 14 14 14 14 14 14 14 14 14 14 14 14 14 14 14 14 14 14 14 14 14 14 14 14 14 14 14 14 14 14 14 14 14 14 14 14 14 14 14 14 14 14 14 14 14 14 14 14 14 14 14 14 14 14 14 14 14 14 14 14 14 14 14 14 14 14 14 14 14 14 14 14 14 14 14 14 14 14 14 14 14 14 14 14 14 14 14 14 14 14 14 14 14 14 82 14 82 82 82 82 82 82 82 82 82 82 82 82 82 82 82 82 82 82 82 82 82 82 82 82 82 82 82 82 82 82 82 82 82 82 82 82 82 82 82 82 82 82 82 82 82 82 82 82 82 82 82 82 82 82 82 82 82 82 82 82 82 82 82 82 82 82 82 82 82 82 82 82 82 82 82 82 82 82 82 82 82 82 82 82 82 82 82 82 82 82 82 82 82 82 82 82 82 82 253 82 82 253 253 82 253 253 253 253 253 253 253 253 253 253 253 253 253 253 253 253 253 253 253 253 253 253 253 253 253 253 253 253 253 253 253 253 253 253 253 253 84 253 84 84 84 84 84 84 84 84 84 84 84 84 84 84 84 84 84 84 84 84 84 84 84 84 84 84 84 84 84 84 84 84 84 84 84 84 211 84 84 211 143 84 84 143 143 84 143 143 143 143 143 143 143 143 143 143 143 143 143 143 143 143 143 143 143 143 143 143 143 143 143 143 143 143 143 143 143 143 143 143 143 143 143 143 143 143 143 143 143 143 143 143 143 143 143 143 143 143 143 143 143 143 143 143 143 143 143 143 143 143 143 143 143 143 143 143 143 143 143 143 143 143 143 143 143 143 143 143 143 143 143 143 143 143 143 143 143 143 143 143 143 143 143 143 143 143 143 143 143 143 143 143 143 143 143 143 143 143 143 143 143 143 143 143 143 143 143 143 143 143 143 143 143 143 143 143 143 143 143 143 143 143 143 143 143 143 143 143 143 143 143 143 7 143 165 7 7 165 165 7 7 165 165 7 7 165 165 7 7 165 7 7 7 7 7 7 7 7 7 7 7 7 7 7 7 7 7 7 7 7 7 7 7 7 7 7 7 7 7 7 7 7 7 7 7 7 7 7 7 7 7 7 7 7 7 7 7 7 7 7 7 7 7 7 7 7 7 7 7 7 7 14 14 14 14 14 14 14 14 14 14 14 14 14 14 14 14 14 14 14 14 14 14 14 14 14 14 14 14 14 14 14 14 14 14 14 14 14 14 14 14 14 14 14 14 14 14 14 14 14 14 14 14 14 14 14 14 14 14 14 14 14 14 14 14 14 14 14 14 14 14 14 14 14 14 14 14 14 14 14 14 14 14 14 14 14 14 14 14 14 14 14 14 14 14 14 82 14 82 82 82 82 82 82 82 82 82 82 82 82 82 82 82 82 82 82 82 82 82 82 82 82 82 82 82 82 82 82 82 82 82 82 82 82 82 82 82 82 82 82 82 82 82 82 82 82 82 82 82 82 82 82 82 82 82 82 82 82 82 82 82 82 82 82 82 82 82 82 82 82 82 82 82 82 82 82 82 82 82 82 82 82 82 82 82 82 82 82 82 82 82 82 82 82 82 82 82 82 82 82 82 82 253 82 253 253 253 253 253 253 253 253 253 253 253 253 253 253 253 253 253 253 253 253 253 253 253 253 253 253 253 253 253 253 253 253 84 253 84 84 84 84 84 84 84 84 84 84 84 84 84 84 84 84 84 84 84 84 84 84 84 84 84 84 84 84 84 84 84 84 84 84 84 84 84 84 84 84 84 84 84 84 84 84 84 84 143 84 143 143 143 143 143 143 143 143 143 143 143 143 143 143 143 143 143 143 143 143 143 143 143 143 143 143 143 143 143 143 143 143 143 143 143 143 143 143 143 143 143 143 143 143 143 143 143 143 143 143 143 143 143 143 143 143 143 143 143 143 143 143 143 143 143 143 143 143 143 143 143 143 143 143 143 143 143 143 143 143 143 143 143 143 143 143 143 143 143 143 143 143 143 143 143 143 143 143 143 143 143 14