# vtk DataFile Version 3.0
Triangulation generated with deal.II
ASCII
DATASET UNSTRUCTURED_GRID
POINTS 4 double
0 0 0
100 0 0
0 100 0
100 100 0

CELLS 4 14
4 0 1 3 2
2 0 1
2 1 3
2 2 3

CELL_TYPES 4
9 
3 3 3 


CELL_DATA 4
SCALARS MaterialID int 1
LOOKUP_TABLE default
0 
2 1 3 


SCALARS ManifoldID int 1
LOOKUP_TABLE default
-1 
-1 -1 -1 

