# vtk DataFile Version 3.0
#This file was generated by the deal.II library on 2024/12/17 at 7:19:10
ASCII
DATASET UNSTRUCTURED_GRID

POINTS 16 double
0 0 0
5 0 0
0 5 0
5 5 0
5 0 0
10 0 0
5 5 0
10 5 0
0 5 0
5 5 0
0 10 0
5 10 0
5 5 0
10 5 0
5 10 0
10 10 0

CELLS 4 20
4	0	1	3	2
4	4	5	7	6
4	8	9	11	10
4	12	13	15	14

CELL_TYPES 4
 9 9 9 9
POINT_DATA 16
SCALARS n double 1
LOOKUP_TABLE default
0 5 0 5 5 10 5 10 0 5 0 5 5 10 5 10 
SCALARS |nx| double 1
LOOKUP_TABLE default
1 1 1 1 1 1 1 1 1 1 1 1 1 1 1 1 
