# vtk DataFile Version 3.0
#This file was generated by the deal.II library on 2017/1/11 at 11:48:50
ASCII
DATASET UNSTRUCTURED_GRID

POINTS 32768 double
0 0 0
0.78125 0 0
0 0.78125 0
0.78125 0.78125 0
0.78125 0 0
1.5625 0 0
0.78125 0.78125 0
1.5625 0.78125 0
0 0.78125 0
0.78125 0.78125 0
0 1.5625 0
0.78125 1.5625 0
0.78125 0.78125 0
1.5625 0.78125 0
0.78125 1.5625 0
1.5625 1.5625 0
1.5625 0 0
2.34375 0 0
1.5625 0.78125 0
2.34375 0.78125 0
2.34375 0 0
3.125 0 0
2.34375 0.78125 0
3.125 0.78125 0
1.5625 0.78125 0
2.34375 0.78125 0
1.5625 1.5625 0
2.34375 1.5625 0
2.34375 0.78125 0
3.125 0.78125 0
2.34375 1.5625 0
3.125 1.5625 0
0 1.5625 0
0.78125 1.5625 0
0 2.34375 0
0.78125 2.34375 0
0.78125 1.5625 0
1.5625 1.5625 0
0.78125 2.34375 0
1.5625 2.34375 0
0 2.34375 0
0.78125 2.34375 0
0 3.125 0
0.78125 3.125 0
0.78125 2.34375 0
1.5625 2.34375 0
0.78125 3.125 0
1.5625 3.125 0
1.5625 1.5625 0
2.34375 1.5625 0
1.5625 2.34375 0
2.34375 2.34375 0
2.34375 1.5625 0
3.125 1.5625 0
2.34375 2.34375 0
3.125 2.34375 0
1.5625 2.34375 0
2.34375 2.34375 0
1.5625 3.125 0
2.34375 3.125 0
2.34375 2.34375 0
3.125 2.34375 0
2.34375 3.125 0
3.125 3.125 0
3.125 0 0
3.90625 0 0
3.125 0.78125 0
3.90625 0.78125 0
3.90625 0 0
4.6875 0 0
3.90625 0.78125 0
4.6875 0.78125 0
3.125 0.78125 0
3.90625 0.78125 0
3.125 1.5625 0
3.90625 1.5625 0
3.90625 0.78125 0
4.6875 0.78125 0
3.90625 1.5625 0
4.6875 1.5625 0
4.6875 0 0
5.46875 0 0
4.6875 0.78125 0
5.46875 0.78125 0
5.46875 0 0
6.25 0 0
5.46875 0.78125 0
6.25 0.78125 0
4.6875 0.78125 0
5.46875 0.78125 0
4.6875 1.5625 0
5.46875 1.5625 0
5.46875 0.78125 0
6.25 0.78125 0
5.46875 1.5625 0
6.25 1.5625 0
3.125 1.5625 0
3.90625 1.5625 0
3.125 2.34375 0
3.90625 2.34375 0
3.90625 1.5625 0
4.6875 1.5625 0
3.90625 2.34375 0
4.6875 2.34375 0
3.125 2.34375 0
3.90625 2.34375 0
3.125 3.125 0
3.90625 3.125 0
3.90625 2.34375 0
4.6875 2.34375 0
3.90625 3.125 0
4.6875 3.125 0
4.6875 1.5625 0
5.46875 1.5625 0
4.6875 2.34375 0
5.46875 2.34375 0
5.46875 1.5625 0
6.25 1.5625 0
5.46875 2.34375 0
6.25 2.34375 0
4.6875 2.34375 0
5.46875 2.34375 0
4.6875 3.125 0
5.46875 3.125 0
5.46875 2.34375 0
6.25 2.34375 0
5.46875 3.125 0
6.25 3.125 0
0 3.125 0
0.78125 3.125 0
0 3.90625 0
0.78125 3.90625 0
0.78125 3.125 0
1.5625 3.125 0
0.78125 3.90625 0
1.5625 3.90625 0
0 3.90625 0
0.78125 3.90625 0
0 4.6875 0
0.78125 4.6875 0
0.78125 3.90625 0
1.5625 3.90625 0
0.78125 4.6875 0
1.5625 4.6875 0
1.5625 3.125 0
2.34375 3.125 0
1.5625 3.90625 0
2.34375 3.90625 0
2.34375 3.125 0
3.125 3.125 0
2.34375 3.90625 0
3.125 3.90625 0
1.5625 3.90625 0
2.34375 3.90625 0
1.5625 4.6875 0
2.34375 4.6875 0
2.34375 3.90625 0
3.125 3.90625 0
2.34375 4.6875 0
3.125 4.6875 0
0 4.6875 0
0.78125 4.6875 0
0 5.46875 0
0.78125 5.46875 0
0.78125 4.6875 0
1.5625 4.6875 0
0.78125 5.46875 0
1.5625 5.46875 0
0 5.46875 0
0.78125 5.46875 0
0 6.25 0
0.78125 6.25 0
0.78125 5.46875 0
1.5625 5.46875 0
0.78125 6.25 0
1.5625 6.25 0
1.5625 4.6875 0
2.34375 4.6875 0
1.5625 5.46875 0
2.34375 5.46875 0
2.34375 4.6875 0
3.125 4.6875 0
2.34375 5.46875 0
3.125 5.46875 0
1.5625 5.46875 0
2.34375 5.46875 0
1.5625 6.25 0
2.34375 6.25 0
2.34375 5.46875 0
3.125 5.46875 0
2.34375 6.25 0
3.125 6.25 0
3.125 3.125 0
3.90625 3.125 0
3.125 3.90625 0
3.90625 3.90625 0
3.90625 3.125 0
4.6875 3.125 0
3.90625 3.90625 0
4.6875 3.90625 0
3.125 3.90625 0
3.90625 3.90625 0
3.125 4.6875 0
3.90625 4.6875 0
3.90625 3.90625 0
4.6875 3.90625 0
3.90625 4.6875 0
4.6875 4.6875 0
4.6875 3.125 0
5.46875 3.125 0
4.6875 3.90625 0
5.46875 3.90625 0
5.46875 3.125 0
6.25 3.125 0
5.46875 3.90625 0
6.25 3.90625 0
4.6875 3.90625 0
5.46875 3.90625 0
4.6875 4.6875 0
5.46875 4.6875 0
5.46875 3.90625 0
6.25 3.90625 0
5.46875 4.6875 0
6.25 4.6875 0
3.125 4.6875 0
3.90625 4.6875 0
3.125 5.46875 0
3.90625 5.46875 0
3.90625 4.6875 0
4.6875 4.6875 0
3.90625 5.46875 0
4.6875 5.46875 0
3.125 5.46875 0
3.90625 5.46875 0
3.125 6.25 0
3.90625 6.25 0
3.90625 5.46875 0
4.6875 5.46875 0
3.90625 6.25 0
4.6875 6.25 0
4.6875 4.6875 0
5.46875 4.6875 0
4.6875 5.46875 0
5.46875 5.46875 0
5.46875 4.6875 0
6.25 4.6875 0
5.46875 5.46875 0
6.25 5.46875 0
4.6875 5.46875 0
5.46875 5.46875 0
4.6875 6.25 0
5.46875 6.25 0
5.46875 5.46875 0
6.25 5.46875 0
5.46875 6.25 0
6.25 6.25 0
6.25 0 0
7.03125 0 0
6.25 0.78125 0
7.03125 0.78125 0
7.03125 0 0
7.8125 0 0
7.03125 0.78125 0
7.8125 0.78125 0
6.25 0.78125 0
7.03125 0.78125 0
6.25 1.5625 0
7.03125 1.5625 0
7.03125 0.78125 0
7.8125 0.78125 0
7.03125 1.5625 0
7.8125 1.5625 0
7.8125 0 0
8.59375 0 0
7.8125 0.78125 0
8.59375 0.78125 0
8.59375 0 0
9.375 0 0
8.59375 0.78125 0
9.375 0.78125 0
7.8125 0.78125 0
8.59375 0.78125 0
7.8125 1.5625 0
8.59375 1.5625 0
8.59375 0.78125 0
9.375 0.78125 0
8.59375 1.5625 0
9.375 1.5625 0
6.25 1.5625 0
7.03125 1.5625 0
6.25 2.34375 0
7.03125 2.34375 0
7.03125 1.5625 0
7.8125 1.5625 0
7.03125 2.34375 0
7.8125 2.34375 0
6.25 2.34375 0
7.03125 2.34375 0
6.25 3.125 0
7.03125 3.125 0
7.03125 2.34375 0
7.8125 2.34375 0
7.03125 3.125 0
7.8125 3.125 0
7.8125 1.5625 0
8.59375 1.5625 0
7.8125 2.34375 0
8.59375 2.34375 0
8.59375 1.5625 0
9.375 1.5625 0
8.59375 2.34375 0
9.375 2.34375 0
7.8125 2.34375 0
8.59375 2.34375 0
7.8125 3.125 0
8.59375 3.125 0
8.59375 2.34375 0
9.375 2.34375 0
8.59375 3.125 0
9.375 3.125 0
9.375 0 0
10.1562 0 0
9.375 0.78125 0
10.1562 0.78125 0
10.1562 0 0
10.9375 0 0
10.1562 0.78125 0
10.9375 0.78125 0
9.375 0.78125 0
10.1562 0.78125 0
9.375 1.5625 0
10.1562 1.5625 0
10.1562 0.78125 0
10.9375 0.78125 0
10.1562 1.5625 0
10.9375 1.5625 0
10.9375 0 0
11.7188 0 0
10.9375 0.78125 0
11.7188 0.78125 0
11.7188 0 0
12.5 0 0
11.7188 0.78125 0
12.5 0.78125 0
10.9375 0.78125 0
11.7188 0.78125 0
10.9375 1.5625 0
11.7188 1.5625 0
11.7188 0.78125 0
12.5 0.78125 0
11.7188 1.5625 0
12.5 1.5625 0
9.375 1.5625 0
10.1562 1.5625 0
9.375 2.34375 0
10.1562 2.34375 0
10.1562 1.5625 0
10.9375 1.5625 0
10.1562 2.34375 0
10.9375 2.34375 0
9.375 2.34375 0
10.1562 2.34375 0
9.375 3.125 0
10.1562 3.125 0
10.1562 2.34375 0
10.9375 2.34375 0
10.1562 3.125 0
10.9375 3.125 0
10.9375 1.5625 0
11.7188 1.5625 0
10.9375 2.34375 0
11.7188 2.34375 0
11.7188 1.5625 0
12.5 1.5625 0
11.7188 2.34375 0
12.5 2.34375 0
10.9375 2.34375 0
11.7188 2.34375 0
10.9375 3.125 0
11.7188 3.125 0
11.7188 2.34375 0
12.5 2.34375 0
11.7188 3.125 0
12.5 3.125 0
6.25 3.125 0
7.03125 3.125 0
6.25 3.90625 0
7.03125 3.90625 0
7.03125 3.125 0
7.8125 3.125 0
7.03125 3.90625 0
7.8125 3.90625 0
6.25 3.90625 0
7.03125 3.90625 0
6.25 4.6875 0
7.03125 4.6875 0
7.03125 3.90625 0
7.8125 3.90625 0
7.03125 4.6875 0
7.8125 4.6875 0
7.8125 3.125 0
8.59375 3.125 0
7.8125 3.90625 0
8.59375 3.90625 0
8.59375 3.125 0
9.375 3.125 0
8.59375 3.90625 0
9.375 3.90625 0
7.8125 3.90625 0
8.59375 3.90625 0
7.8125 4.6875 0
8.59375 4.6875 0
8.59375 3.90625 0
9.375 3.90625 0
8.59375 4.6875 0
9.375 4.6875 0
6.25 4.6875 0
7.03125 4.6875 0
6.25 5.46875 0
7.03125 5.46875 0
7.03125 4.6875 0
7.8125 4.6875 0
7.03125 5.46875 0
7.8125 5.46875 0
6.25 5.46875 0
7.03125 5.46875 0
6.25 6.25 0
7.03125 6.25 0
7.03125 5.46875 0
7.8125 5.46875 0
7.03125 6.25 0
7.8125 6.25 0
7.8125 4.6875 0
8.59375 4.6875 0
7.8125 5.46875 0
8.59375 5.46875 0
8.59375 4.6875 0
9.375 4.6875 0
8.59375 5.46875 0
9.375 5.46875 0
7.8125 5.46875 0
8.59375 5.46875 0
7.8125 6.25 0
8.59375 6.25 0
8.59375 5.46875 0
9.375 5.46875 0
8.59375 6.25 0
9.375 6.25 0
9.375 3.125 0
10.1562 3.125 0
9.375 3.90625 0
10.1562 3.90625 0
10.1562 3.125 0
10.9375 3.125 0
10.1562 3.90625 0
10.9375 3.90625 0
9.375 3.90625 0
10.1562 3.90625 0
9.375 4.6875 0
10.1562 4.6875 0
10.1562 3.90625 0
10.9375 3.90625 0
10.1562 4.6875 0
10.9375 4.6875 0
10.9375 3.125 0
11.7188 3.125 0
10.9375 3.90625 0
11.7188 3.90625 0
11.7188 3.125 0
12.5 3.125 0
11.7188 3.90625 0
12.5 3.90625 0
10.9375 3.90625 0
11.7188 3.90625 0
10.9375 4.6875 0
11.7188 4.6875 0
11.7188 3.90625 0
12.5 3.90625 0
11.7188 4.6875 0
12.5 4.6875 0
9.375 4.6875 0
10.1562 4.6875 0
9.375 5.46875 0
10.1562 5.46875 0
10.1562 4.6875 0
10.9375 4.6875 0
10.1562 5.46875 0
10.9375 5.46875 0
9.375 5.46875 0
10.1562 5.46875 0
9.375 6.25 0
10.1562 6.25 0
10.1562 5.46875 0
10.9375 5.46875 0
10.1562 6.25 0
10.9375 6.25 0
10.9375 4.6875 0
11.7188 4.6875 0
10.9375 5.46875 0
11.7188 5.46875 0
11.7188 4.6875 0
12.5 4.6875 0
11.7188 5.46875 0
12.5 5.46875 0
10.9375 5.46875 0
11.7188 5.46875 0
10.9375 6.25 0
11.7188 6.25 0
11.7188 5.46875 0
12.5 5.46875 0
11.7188 6.25 0
12.5 6.25 0
0 6.25 0
0.78125 6.25 0
0 7.03125 0
0.78125 7.03125 0
0.78125 6.25 0
1.5625 6.25 0
0.78125 7.03125 0
1.5625 7.03125 0
0 7.03125 0
0.78125 7.03125 0
0 7.8125 0
0.78125 7.8125 0
0.78125 7.03125 0
1.5625 7.03125 0
0.78125 7.8125 0
1.5625 7.8125 0
1.5625 6.25 0
2.34375 6.25 0
1.5625 7.03125 0
2.34375 7.03125 0
2.34375 6.25 0
3.125 6.25 0
2.34375 7.03125 0
3.125 7.03125 0
1.5625 7.03125 0
2.34375 7.03125 0
1.5625 7.8125 0
2.34375 7.8125 0
2.34375 7.03125 0
3.125 7.03125 0
2.34375 7.8125 0
3.125 7.8125 0
0 7.8125 0
0.78125 7.8125 0
0 8.59375 0
0.78125 8.59375 0
0.78125 7.8125 0
1.5625 7.8125 0
0.78125 8.59375 0
1.5625 8.59375 0
0 8.59375 0
0.78125 8.59375 0
0 9.375 0
0.78125 9.375 0
0.78125 8.59375 0
1.5625 8.59375 0
0.78125 9.375 0
1.5625 9.375 0
1.5625 7.8125 0
2.34375 7.8125 0
1.5625 8.59375 0
2.34375 8.59375 0
2.34375 7.8125 0
3.125 7.8125 0
2.34375 8.59375 0
3.125 8.59375 0
1.5625 8.59375 0
2.34375 8.59375 0
1.5625 9.375 0
2.34375 9.375 0
2.34375 8.59375 0
3.125 8.59375 0
2.34375 9.375 0
3.125 9.375 0
3.125 6.25 0
3.90625 6.25 0
3.125 7.03125 0
3.90625 7.03125 0
3.90625 6.25 0
4.6875 6.25 0
3.90625 7.03125 0
4.6875 7.03125 0
3.125 7.03125 0
3.90625 7.03125 0
3.125 7.8125 0
3.90625 7.8125 0
3.90625 7.03125 0
4.6875 7.03125 0
3.90625 7.8125 0
4.6875 7.8125 0
4.6875 6.25 0
5.46875 6.25 0
4.6875 7.03125 0
5.46875 7.03125 0
5.46875 6.25 0
6.25 6.25 0
5.46875 7.03125 0
6.25 7.03125 0
4.6875 7.03125 0
5.46875 7.03125 0
4.6875 7.8125 0
5.46875 7.8125 0
5.46875 7.03125 0
6.25 7.03125 0
5.46875 7.8125 0
6.25 7.8125 0
3.125 7.8125 0
3.90625 7.8125 0
3.125 8.59375 0
3.90625 8.59375 0
3.90625 7.8125 0
4.6875 7.8125 0
[...]
POINT_DATA 32768
SCALARS n double 1
LOOKUP_TABLE default
0.999935 0.999925 0.999935 0.999925 0.999925 0.999893 0.999925 0.999893 0.999935 0.999925 0.999936 0.999926 0.999925 0.999893 0.999926 0.999894 0.999893 0.999828 0.999893 0.999828 0.999828 0.99971 0.999828 0.999712 0.999893 0.999828 0.999894 0.99983 0.999828 0.999712 0.99983 0.999715 0.999936 0.999926 0.999937 0.999928 0.999926 0.999894 0.999928 0.999896 0.999937 0.999928 0.999939 0.99993 0.999928 0.999896 0.99993 0.999899 0.999894 0.99983 0.999896 0.999834 0.99983 0.999715 0.999834 0.999721 0.999896 0.999834 0.999899 0.999838 0.999834 0.999721 0.999838 0.999729 0.99971 0.999506 0.999712 0.999508 0.999506 0.999151 0.999508 0.999155 0.999712 0.999508 0.999715 0.999514 0.999508 0.999155 0.999514 0.999166 0.999151 0.99854 0.999155 0.998547 0.99854 0.997489 0.998547 0.9975 0.999155 0.998547 0.999166 0.998565 0.998547 0.9975 0.998565 0.997533 0.999715 0.999514 0.999721 0.999524 0.999514 0.999166 0.999524 0.999183 0.999721 0.999524 0.999729 0.999538 0.999524 0.999183 0.999538 0.999207 0.999166 0.998565 0.999183 0.998596 0.998565 0.997533 0.998596 0.997587 0.999183 0.998596 0.999207 0.998639 0.998596 0.997587 0.998639 0.997661 0.999939 0.99993 0.999941 0.999932 0.99993 0.999899 0.999932 0.999903 0.999941 0.999932 0.999943 0.999935 0.999932 0.999903 0.999935 0.999907 0.999899 0.999838 0.999903 0.999844 0.999838 0.999729 0.999844 0.999739 0.999903 0.999844 0.999907 0.999851 0.999844 0.999739 0.999851 0.999751 0.999943 0.999935 0.999946 0.999938 0.999935 0.999907 0.999938 0.999912 0.999946 0.999938 0.999949 0.999942 0.999938 0.999912 0.999942 0.999917 0.999907 0.999851 0.999912 0.999859 0.999851 0.999751 0.999859 0.999764 0.999912 0.999859 0.999917 0.999867 0.999859 0.999764 0.999867 0.999778 0.999729 0.999538 0.999739 0.999555 0.999538 0.999207 0.999555 0.999238 0.999739 0.999555 0.999751 0.999575 0.999555 0.999238 0.999575 0.999273 0.999207 0.998639 0.999238 0.998691 0.998639 0.997661 0.998691 0.997753 0.999238 0.998691 0.999273 0.998753 0.998691 0.997753 0.998753 0.997862 0.999751 0.999575 0.999764 0.999598 0.999575 0.999273 0.999598 0.999313 0.999764 0.999598 0.999778 0.999624 0.999598 0.999313 0.999624 0.999357 0.999273 0.998753 0.999313 0.998824 0.998753 0.997862 0.998824 0.997985 0.999313 0.998824 0.999357 0.998901 0.998824 0.997985 0.998901 0.998119 0.997489 0.995682 0.9975 0.995701 0.995682 0.992581 0.995701 0.992615 0.9975 0.995701 0.997533 0.995759 0.995701 0.992615 0.995759 0.992715 0.992581 0.987279 0.992615 0.987338 0.987279 0.978261 0.987338 0.978362 0.992615 0.987338 0.992715 0.987512 0.987338 0.978362 0.987512 0.978664 0.997533 0.995759 0.997587 0.995853 0.995759 0.992715 0.995853 0.99288 0.997587 0.995853 0.997661 0.995982 0.995853 0.99288 0.995982 0.993106 0.992715 0.987512 0.99288 0.987799 0.987512 0.978664 0.987799 0.979159 0.99288 0.987799 0.993106 0.988191 0.987799 0.979159 0.988191 0.979837 0.978261 0.963064 0.978362 0.963237 0.963064 0.937856 0.963237 0.938145 0.978362 0.963237 0.978664 0.963752 0.963237 0.938145 0.963752 0.939008 0.937856 0.897133 0.938145 0.897602 0.897133 0.834121 0.897602 0.834842 0.938145 0.897602 0.939008 0.899001 0.897602 0.834842 0.899001 0.836996 0.978664 0.963752 0.979159 0.964598 0.963752 0.939008 0.964598 0.940426 0.979159 0.964598 0.979837 0.965757 0.964598 0.940426 0.965757 0.942373 0.939008 0.899001 0.940426 0.901305 0.899001 0.836996 0.901305 0.840554 0.940426 0.901305 0.942373 0.904475 0.901305 0.840554 0.904475 0.845464 0.997661 0.995982 0.997753 0.996144 0.995982 0.993106 0.996144 0.993387 0.997753 0.996144 0.997862 0.996334 0.996144 0.993387 0.996334 0.993719 0.993106 0.988191 0.993387 0.988681 0.988191 0.979837 0.988681 0.980684 0.993387 0.988681 0.993719 0.989258 0.988681 0.980684 0.989258 0.981681 0.997862 0.996334 0.997985 0.996548 0.996334 0.993719 0.996548 0.994093 0.997985 0.996548 0.998119 0.996782 0.996548 0.994093 0.996782 0.994501 0.993719 0.989258 0.994093 0.989908 0.989258 0.981681 0.989908 0.982806 0.994093 0.989908 0.994501 0.990618 0.989908 0.982806 0.990618 0.984034 0.979837 0.965757 0.980684 0.967206 0.965757 0.942373 0.967206 0.944809 0.980684 0.967206 0.981681 0.968913 0.967206 0.944809 0.968913 0.947684 0.942373 0.904475 0.944809 0.908451 0.904475 0.845464 0.908451 0.851653 0.944809 0.908451 0.947684 0.913161 0.908451 0.851653 0.913161 0.859023 0.981681 0.968913 0.982806 0.970842 0.968913 0.947684 0.970842 0.950938 0.982806 0.970842 0.984034 0.97295 0.970842 0.950938 0.97295 0.954503 0.947684 0.913161 0.950938 0.918511 0.913161 0.859023 0.918511 0.867448 0.950938 0.918511 0.954503 0.924393 0.918511 0.867448 0.924393 0.876776 0.999949 0.999942 0.999953 0.999946 0.999942 0.999917 0.999946 0.999922 0.999953 0.999946 0.999956 0.99995 0.999946 0.999922 0.99995 0.999928 0.999917 0.999867 0.999922 0.999876 0.999867 0.999778 0.999876 0.999794 0.999922 0.999876 0.999928 0.999886 0.999876 0.999794 0.999886 0.99981 0.999956 0.99995 0.99996 0.999954 0.99995 0.999928 0.999954 0.999934 0.99996 0.999954 0.999963 0.999958 0.999954 0.999934 0.999958 0.99994 0.999928 0.999886 0.999934 0.999896 0.999886 0.99981 0.999896 0.999827 0.999934 0.999896 0.99994 0.999906 0.999896 0.999827 0.999906 0.999843 0.999778 0.999624 0.999794 0.999651 0.999624 0.999357 0.999651 0.999404 0.999794 0.999651 0.99981 0.999679 0.999651 0.999404 0.999679 0.999453 0.999357 0.998901 0.999404 0.998982 0.998901 0.998119 0.998982 0.998262 0.999404 0.998982 0.999453 0.999068 0.998982 0.998262 0.999068 0.99841 0.99981 0.999679 0.999827 0.999707 0.999679 0.999453 0.999707 0.999503 0.999827 0.999707 0.999843 0.999736 0.999707 0.999503 0.999736 0.999553 0.999453 0.999068 0.999503 0.999154 0.999068 0.99841 0.999154 0.998561 0.999503 0.999154 0.999553 0.999241 0.999154 0.998561 0.999241 0.998712 0.999963 0.999958 0.999967 0.999962 0.999958 0.99994 0.999962 0.999946 0.999967 0.999962 0.99997 0.999966 0.999962 0.999946 0.999966 0.999952 0.99994 0.999906 0.999946 0.999915 0.999906 0.999843 0.999915 0.99986 0.999946 0.999915 0.999952 0.999925 0.999915 0.99986 0.999925 0.999876 0.99997 0.999966 0.999974 0.99997 0.999966 0.999952 0.99997 0.999958 0.999974 0.99997 0.999977 0.999974 0.99997 0.999958 0.999974 0.999963 0.999952 0.999925 0.999958 0.999934 0.999925 0.999876 0.999934 0.999891 0.999958 0.999934 0.999963 0.999942 0.999934 0.999891 0.999942 0.999906 0.999843 0.999736 0.99986 0.999764 0.999736 0.999553 0.999764 0.999602 0.99986 0.999764 0.999876 0.999792 0.999764 0.999602 0.999792 0.99965 0.999553 0.999241 0.999602 0.999326 0.999241 0.998712 0.999326 0.99886 0.999602 0.999326 0.99965 0.999409 0.999326 0.99886 0.999409 0.999003 0.999876 0.999792 0.999891 0.999818 0.999792 0.99965 0.999818 0.999695 0.999891 0.999818 0.999906 0.999843 0.999818 0.999695 0.999843 0.999737 0.99965 0.999409 0.999695 0.999487 0.999409 0.999003 0.999487 0.999137 0.999695 0.999487 0.999737 0.99956 0.999487 0.999137 0.99956 0.999263 0.998119 0.996782 0.998262 0.997032 0.996782 0.994501 0.997032 0.994936 0.998262 0.997032 0.99841 0.99729 0.997032 0.994936 0.99729 0.995386 0.994501 0.990618 0.994936 0.991373 0.990618 0.984034 0.991373 0.98534 0.994936 0.991373 0.995386 0.992155 0.991373 0.98534 0.992155 0.986694 0.99841 0.99729 0.998561 0.997553 0.99729 0.995386 0.997553 0.995844 0.998561 0.997553 0.998712 0.997816 0.997553 0.995844 0.997816 0.996299 0.995386 0.992155 0.995844 0.992949 0.992155 0.986694 0.992949 0.988067 0.995844 0.992949 0.996299 0.993739 0.992949 0.988067 0.993739 0.98943 0.984034 0.97295 0.98534 0.975191 0.97295 0.954503 0.975191 0.9583 0.98534 0.975191 0.986694 0.977517 0.975191 0.9583 0.977517 0.962247 0.954503 0.924393 0.9583 0.930684 0.924393 0.876776 0.930684 0.886825 0.9583 0.930684 0.962247 0.937248 0.930684 0.886825 0.937248 0.897387 0.986694 0.977517 0.988067 0.979876 0.977517 0.962247 0.979876 0.966256 0.988067 0.979876 0.98943 0.982218 0.979876 0.966256 0.982218 0.970242 0.962247 0.937248 0.966256 0.943942 0.937248 0.897387 0.943942 0.908233 0.966256 0.943942 0.970242 0.950616 0.943942 0.908233 0.950616 0.919122 0.998712 0.997816 0.99886 0.998072 0.997816 0.996299 0.998072 0.996744 0.99886 0.998072 0.999003 0.998319 0.998072 0.996744 0.998319 0.99717 0.996299 0.993739 0.996744 0.994508 0.993739 0.98943 0.994508 0.990758 0.996744 0.994508 0.99717 0.995244 0.994508 0.990758 0.995244 0.992025 0.999003 0.998319 0.999137 0.998551 0.998319 0.99717 0.998551 0.997571 0.999137 0.998551 0.999263 0.998767 0.998551 0.997571 0.998767 0.997942 0.99717 0.995244 0.997571 0.995934 0.995244 0.992025 0.995934 0.993211 0.997571 0.995934 0.997942 0.99657 0.995934 0.993211 0.99657 0.9943 0.98943 0.982218 0.990758 0.984497 0.982218 0.970242 0.984497 0.974121 0.990758 0.984497 0.992025 0.986669 0.984497 0.974121 0.986669 0.977818 0.970242 0.950616 0.974121 0.957128 0.950616 0.919122 0.957128 0.929808 0.974121 0.957128 0.977818 0.963344 0.957128 0.929808 0.963344 0.940057 0.992025 0.986669 0.993211 0.988698 0.986669 0.977818 0.988698 0.981267 0.993211 0.988698 0.9943 0.990555 0.988698 0.981267 0.990555 0.984419 0.977818 0.963344 0.981267 0.969147 0.963344 0.940057 0.969147 0.94966 0.981267 0.969147 0.984419 0.974446 0.969147 0.94966 0.974446 0.958445 0.834121 0.742986 0.834842 0.744009 0.742986 0.623621 0.744009 0.624914 0.834842 0.744009 0.836996 0.74707 0.744009 0.624914 0.74707 0.628793 0.623621 0.486606 0.624914 0.488018 0.486606 0.351634 0.488018 0.352951 0.624914 0.488018 0.628793 0.492267 0.488018 0.352951 0.492267 0.35693 0.836996 0.74707 0.840554 0.752145 0.74707 0.628793 0.752145 0.635258 0.840554 0.752145 0.845464 0.759188 0.752145 0.635258 0.759188 0.644302 0.628793 0.492267 0.635258 0.499397 0.492267 0.35693 0.499397 0.363652 0.635258 0.499397 0.644302 0.509472 0.499397 0.363652 0.509472 0.373252 0.351634 0.237251 0.352951 0.238317 0.237251 0.151794 0.238317 0.152568 0.352951 0.238317 0.35693 0.241549 0.238317 0.152568 0.241549 0.15492 0.151794 0.0936001 0.152568 0.0941213 0.0936001 0.0563592 0.0941213 0.0566938 0.152568 0.0941213 0.15492 0.0957074 0.0941213 0.0566938 0.0957074 0.0577139 0.35693 0.241549 0.363652 0.247042 0.241549 0.15492 0.247042 0.158937 0.363652 0.247042 0.373252 0.254963 0.247042 0.158937 0.254963 0.164775 0.15492 0.0957074 0.158937 0.0984285 0.0957074 0.0577139 0.0984285 0.0594694 0.158937 0.0984285 0.164775 0.102407 0.0984285 0.0594694 0.102407 0.0620489 0.845464 0.759188 0.851653 0.768131 0.759188 0.644302 0.768131 0.655907 0.851653 0.768131 0.859023 0.778875 0.768131 0.655907 0.778875 0.670029 0.644302 0.509472 0.655907 0.522572 0.509472 0.373252 0.522572 0.385912 0.655907 0.522572 0.670029 0.538777 0.522572 0.385912 0.538777 0.40186 0.859023 0.778875 0.867448 0.791282 0.778875 0.670029 0.791282 0.686585 0.867448 0.791282 0.876776 0.805175 0.791282 0.686585 0.805175 0.705438 0.670029 0.538777 0.686585 0.558153 0.538777 0.40186 0.558153 0.42135 0.686585 0.558153 0.705438 0.580721 0.558153 0.42135 0.580721 0.444646 0.373252 0.254963 0.385912 0.265547 0.254963 0.164775 0.265547 0.17266 0.385912 0.265547 0.40186 0.279105 0.265547 0.17266 0.279105 0.182905 0.164775 0.102407 0.17266 0.107827 0.102407 0.0620489 0.107827 0.0655872 0.17266 0.107827 0.182905 0.114948 0.107827 0.0655872 0.114948 0.0702785 0.40186 0.279105 0.42135 0.296027 0.279105 0.182905 0.296027 0.19592 0.42135 0.296027 0.444646 0.31677 0.296027 0.19592 0.31677 0.212228 0.182905 0.114948 0.19592 0.124124 0.114948 0.0702785 0.124124 0.0763941 0.19592 0.124124 0.212228 0.135828 0.124124 0.0763941 0.135828 0.0843091 0.0563592 0.0334461 0.0566938 0.0336551 0.0334461 0.0196841 0.0336551 0.0198126 0.0566938 0.0336551 0.0577139 0.0342929 0.0336551 0.0198126 0.0342929 0.0202056 0.0196841 0.0115395 0.0198126 0.0116183 0.0115395 0.00676743 0.0116183 0.00681594 0.0198126 0.0116183 0.0202056 0.0118593 0.0116183 0.00681594 0.0118593 0.00696466 0.0577139 0.0342929 0.0594694 0.0353936 0.0342929 0.0202056 0.0353936 0.0208857 0.0594694 0.0353936 0.0620489 0.0370179 0.0353936 0.0208857 0.0370179 0.0218934 0.0202056 0.0118593 0.0208857 0.0122776 0.0118593 0.00696466 0.0122776 0.00722362 0.0208857 0.0122776 0.0218934 0.0129003 0.0122776 0.00722362 0.0129003 0.00761104 0.00676743 0.00399878 0.00681594 0.00402931 0.00399878 0.0024211 0.00402931 0.00244134 0.00681594 0.00402931 0.00696466 0.00412308 0.00402931 0.00244134 0.00412308 0.00250369 0.0024211 0.00156536 0.00244134 0.00158033 0.00156536 0.00117496 0.00158033 0.00118827 0.00244134 0.00158033 0.00250369 0.00162657 0.00158033 0.00118827 0.00162657 0.00122944 0.00696466 0.00412308 0.00722362 0.00428707 0.00412308 0.00250369 0.00428707 0.00261328 0.00722362 0.00428707 0.00761104 0.004534 0.00428707 0.00261328 0.004534 0.00277962 0.00250369 0.00162657 0.00261328 0.00170831 0.00162657 0.00122944 0.00170831 0.00130249 0.00261328 0.00170831 0.00277962 0.00183341 0.00170831 0.00130249 0.00183341 0.00141488 0.0620489 0.0370179 0.0655872 0.0392593 0.0370179 0.0218934 0.0392593 0.0232919 0.0655872 0.0392593 0.0702785 0.0422546 0.0392593 0.0232919 0.0422546 0.025175 0.0218934 0.0129003 0.0232919 0.0137697 0.0129003 0.00761104 0.0137697 0.008156 0.0232919 0.0137697 0.025175 0.0149499 0.0137697 0.008156 0.0149499 0.00890272 0.0702785 0.0422546 0.0763941 0.0461989 0.0422546 0.025175 0.0461989 0.0276787 0.0763941 0.0461989 0.0843091 0.0513683 0.0461989 0.0276787 0.0513683 0.0309997 0.025175 0.0149499 0.0276787 0.0165352 0.0149499 0.00890272 0.0165352 0.00991764 0.0276787 0.0165352 0.0309997 0.0186647 0.0165352 0.00991764 0.0186647 0.0113006 0.00761104 0.004534 0.008156 0.00488444 0.004534 0.00277962 0.00488444 0.00301824 0.008156 0.00488444 0.00890272 0.00537017 0.00488444 0.00301824 0.00537017 0.0033535 0.00277962 0.00183341 0.00301824 0.00201483 0.00183341 0.00141488 0.00201483 0.00157897 0.00301824 0.00201483 0.0033535 0.00227315 0.00201483 0.00157897 0.00227315 0.00181444 0.00890272 0.00537017 0.00991764 0.00603977 0.00537017 0.0033535 0.00603977 0.00382323 0.00991764 0.00603977 0.0113006 0.00696765 0.00603977 0.00382323 0.00696765 0.00448647 0.0033535 0.00227315 0.00382323 0.00264072 0.00227315 0.00181444 0.00264072 0.00215238 0.00382323 0.00264072 0.00448647 0.00316867 0.00264072 0.00215238 0.00316867 0.00264207 0.876776 0.805175 0.886825 0.820323 0.805175 0.705438 0.820323 0.726378 0.886825 0.820323 0.897387 0.836444 0.820323 0.726378 0.836444 0.749104 0.705438 0.580721 0.726378 0.606425 0.580721 0.444646 0.606425 0.47198 0.726378 0.606425 0.749104 0.635095 0.606425 0.47198 0.635095 0.503503 0.897387 0.836444 0.908233 0.853209 0.836444 0.749104 0.853209 0.773215 0.908233 0.853209 0.919122 0.870245 0.853209 0.773215 0.870245 0.798211 0.749104 0.635095 0.773215 0.666407 0.635095 0.503503 0.666407 0.539213 0.773215 0.666407 0.798211 0.699847 0.666407 0.539213 0.699847 0.578867 0.444646 0.31677 0.47198 0.341851 0.31677 0.212228 0.341851 0.232476 0.47198 0.341851 0.503503 0.371801 0.341851 0.232476 0.371801 0.257436 0.212228 0.135828 0.232476 0.150683 0.135828 0.0843091 0.150683 0.0945368 0.232476 0.150683 0.257436 0.169489 0.150683 0.0945368 0.169489 0.107774 0.503503 0.371801 0.539213 0.407102 0.371801 0.257436 0.407102 0.287978 0.539213 0.407102 0.578867 0.448074 0.407102 0.287978 0.448074 0.324998 0.257436 0.169489 0.287978 0.193254 0.169489 0.107774 0.193254 0.124956 0.287978 0.193254 0.324998 0.223188 0.193254 0.124956 0.223188 0.147312 0.919122 0.870245 0.929808 0.887154 0.870245 0.798211 0.887154 0.823503 0.929808 0.887154 0.940057 0.903534 0.887154 0.823503 0.903534 0.848444 0.798211 0.699847 0.823503 0.734699 0.699847 0.578867 0.734699 0.6219 0.823503 0.734699 0.848444 0.77006 0.734699 0.6219 0.77006 0.667366 0.940057 0.903534 0.94966 0.919008 0.903534 0.848444 0.919008 0.872381 0.94966 0.919008 0.958445 0.933255 0.919008 0.872381 0.933255 0.894707 0.848444 0.77006 0.872381 0.804899 0.77006 0.667366 0.804899 0.713941 0.872381 0.804899 0.894707 0.83815 0.804899 0.713941 0.83815 0.760019 0.578867 0.448074 0.6219 0.494722 0.448074 0.324998 0.494722 0.369278 0.6219 0.494722 0.667366 0.546558 0.494722 0.369278 0.546558 0.421247 0.324998 0.223188 0.369278 0.260647 0.223188 0.147312 0.260647 0.176396 0.369278 0.260647 0.421247 0.306968 0.260647 0.176396 0.306968 0.214056 0.667366 0.546558 0.713941 0.602448 0.546558 0.421247 0.602448 0.48066 0.713941 0.602448 0.760019 0.660558 0.602448 0.48066 0.660558 0.546268 0.421247 0.306968 0.48066 0.363137 0.306968 0.214056 0.363137 0.262248 0.48066 0.363137 0.546268 0.429275 0.363137 0.262248 0.429275 0.322582 0.0843091 0.0513683 0.0945368 0.0581528 0.0513683 0.0309997 0.0581528 0.0354226 0.0945368 0.0581528 0.107774 0.067102 0.0581528 0.0354226 0.067102 0.0413607 0.0309997 0.0186647 0.0354226 0.021544 0.0186647 0.0113006 0.021544 0.0132026 0.0354226 0.021544 0.0413607 0.0254799 0.021544 0.0132026 0.0254799 0.0158537 0.107774 0.067102 0.124956 0.078988 0.067102 0.0413607 0.078988 0.0494154 0.124956 0.078988 0.147312 0.0948865 0.078988 0.0494154 0.0948865 0.0604609 0.0413607 0.0254799 0.0494154 0.0309317 0.0254799 0.0158537 0.0309317 0.019608 0.0494154 0.0309317 0.0604609 0.0385897 0.0309317 0.019608 0.0385897 0.0250121 0.0113006 0.00696765 0.0132026 0.00826867 0.00696765 0.00448647 0.00826867 0.00543601 0.0132026 0.00826867 0.0158537 0.0101218 0.00826867 0.00543601 0.0101218 0.00681911 0.00448647 0.00316867 0.00543601 0.00393838 0.00316867 0.00264207 0.00393838 0.00336233 0.00543601 0.00393838 0.00681911 0.00508063 0.00393838 0.00336233 0.00508063 0.0044402 0.0158537 0.0101218 0.019608 0.0128085 0.0101218 0.00681911 0.0128085 0.00887157 0.019608 0.0128085 0.0250121 0.0167739 0.0128085 0.00887157 0.0167739 0.0119733 0.00681911 0.00508063 0.00887157 0.0068073 0.00508063 0.0044402 0.0068073 0.00608226 0.00887157 0.0068073 0.0119733 0.00946377 0.0068073 0.00608226 0.00946377 0.00862627 0.147312 0.0948865 0.176396 0.116267 0.0948865 0.0604609 0.116267 0.0757569 0.176396 0.116267 0.214056 0.145068 0.116267 0.0757569 0.145068 0.097082 0.0604609 0.0385897 0.0757569 0.0494892 0.0385897 0.0250121 0.0494892 0.0329124 0.0757569 0.0494892 0.097082 0.0651649 0.0494892 0.0329124 0.0651649 0.0446096 0.214056 0.145068 0.262248 0.183686 0.145068 0.097082 0.183686 0.12685 0.262248 0.183686 0.322582 0.234746 0.183686 0.12685 0.234746 0.168107 0.097082 0.0651649 0.12685 0.0878347 0.0651649 0.0446096 0.0878347 0.0620698 0.12685 0.0878347 0.168107 0.12055 0.0878347 0.0620698 0.12055 0.088159 0.0250121 0.0167739 0.0329124 0.0227242 0.0167739 0.0119733 0.0227242 0.0167383 0.0329124 0.0227242 0.0446096 0.0317755 0.0227242 0.0167383 0.0317755 0.0241564 0.0119733 0.00946377 0.0167383 0.0136145 0.00946377 0.00862627 0.0136145 0.0126259 0.0167383 0.0136145 0.0241564 0.0201802 0.0136145 0.0126259 0.0201802 0.0189869 0.0446096 0.0317755 0.0620698 0.0456692 0.0317755 0.0241564 0.0456692 0.035806 0.0620698 0.0456692 0.088159 0.0670474 0.0456692 0.035806 0.0670474 0.0541448 0.0241564 0.0201802 0.035806 0.0306471 0.0201802 0.0189869 0.0306471 0.029176 0.035806 0.0306471 0.0541448 0.0473635 0.0306471 0.029176 0.0473635 0.0455185 0.999977 0.999974 0.99998 0.999977 0.999974 0.999963 0.999977 0.999968 0.99998 0.999977 0.999983 0.99998 0.999977 0.999968 0.99998 0.999973 0.999963 0.999942 0.999968 0.99995 0.999942 0.999906 0.99995 0.999919 0.999968 0.99995 0.999973 0.999958 0.99995 0.999919 0.999958 0.999931 0.999983 0.99998 0.999985 0.999983 0.99998 0.999973 0.999983 0.999977 0.999985 0.999983 0.999988 0.999986 0.999983 0.999977 0.999986 0.999981 0.999973 0.999958 0.999977 0.999964 0.999958 0.999931 0.999964 0.999942 0.999977 0.999964 0.999981 0.99997 0.999964 0.999942 0.99997 0.999952 0.999906 0.999843 0.999919 0.999866 0.999843 0.999737 0.999866 0.999776 0.999919 0.999866 0.999931 0.999886 0.999866 0.999776 0.999886 0.999811 0.999737 0.99956 0.999776 0.999626 0.99956 0.999263 0.999626 0.999377 0.999776 0.999626 0.999811 0.999687 0.999626 0.999377 0.999687 0.99948 0.999931 0.999886 0.999942 0.999905 0.999886 0.999811 0.999905 0.999843 0.999942 0.999905 0.999952 0.999921 0.999905 0.999843 0.999921 0.999871 0.999811 0.999687 0.999843 0.999741 0.9