# vtk DataFile Version 3.0
#This file was generated by the deal.II library on 2017/1/11 at 11:48:50
ASCII
DATASET UNSTRUCTURED_GRID

POINTS 32768 double
0 50 0
0.78125 50 0
0 50.7812 0
0.78125 50.7812 0
0.78125 50 0
1.5625 50 0
0.78125 50.7812 0
1.5625 50.7812 0
0 50.7812 0
0.78125 50.7812 0
0 51.5625 0
0.78125 51.5625 0
0.78125 50.7812 0
1.5625 50.7812 0
0.78125 51.5625 0
1.5625 51.5625 0
1.5625 50 0
2.34375 50 0
1.5625 50.7812 0
2.34375 50.7812 0
2.34375 50 0
3.125 50 0
2.34375 50.7812 0
3.125 50.7812 0
1.5625 50.7812 0
2.34375 50.7812 0
1.5625 51.5625 0
2.34375 51.5625 0
2.34375 50.7812 0
3.125 50.7812 0
2.34375 51.5625 0
3.125 51.5625 0
0 51.5625 0
0.78125 51.5625 0
0 52.3438 0
0.78125 52.3438 0
0.78125 51.5625 0
1.5625 51.5625 0
0.78125 52.3438 0
1.5625 52.3438 0
0 52.3438 0
0.78125 52.3438 0
0 53.125 0
0.78125 53.125 0
0.78125 52.3438 0
1.5625 52.3438 0
0.78125 53.125 0
1.5625 53.125 0
1.5625 51.5625 0
2.34375 51.5625 0
1.5625 52.3438 0
2.34375 52.3438 0
2.34375 51.5625 0
3.125 51.5625 0
2.34375 52.3438 0
3.125 52.3438 0
1.5625 52.3438 0
2.34375 52.3438 0
1.5625 53.125 0
2.34375 53.125 0
2.34375 52.3438 0
3.125 52.3438 0
2.34375 53.125 0
3.125 53.125 0
3.125 50 0
3.90625 50 0
3.125 50.7812 0
3.90625 50.7812 0
3.90625 50 0
4.6875 50 0
3.90625 50.7812 0
4.6875 50.7812 0
3.125 50.7812 0
3.90625 50.7812 0
3.125 51.5625 0
3.90625 51.5625 0
3.90625 50.7812 0
4.6875 50.7812 0
3.90625 51.5625 0
4.6875 51.5625 0
4.6875 50 0
5.46875 50 0
4.6875 50.7812 0
5.46875 50.7812 0
5.46875 50 0
6.25 50 0
5.46875 50.7812 0
6.25 50.7812 0
4.6875 50.7812 0
5.46875 50.7812 0
4.6875 51.5625 0
5.46875 51.5625 0
5.46875 50.7812 0
6.25 50.7812 0
5.46875 51.5625 0
6.25 51.5625 0
3.125 51.5625 0
3.90625 51.5625 0
3.125 52.3438 0
3.90625 52.3438 0
3.90625 51.5625 0
4.6875 51.5625 0
3.90625 52.3438 0
4.6875 52.3438 0
3.125 52.3438 0
3.90625 52.3438 0
3.125 53.125 0
3.90625 53.125 0
3.90625 52.3438 0
4.6875 52.3438 0
3.90625 53.125 0
4.6875 53.125 0
4.6875 51.5625 0
5.46875 51.5625 0
4.6875 52.3438 0
5.46875 52.3438 0
5.46875 51.5625 0
6.25 51.5625 0
5.46875 52.3438 0
6.25 52.3438 0
4.6875 52.3438 0
5.46875 52.3438 0
4.6875 53.125 0
5.46875 53.125 0
5.46875 52.3438 0
6.25 52.3438 0
5.46875 53.125 0
6.25 53.125 0
0 53.125 0
0.78125 53.125 0
0 53.9062 0
0.78125 53.9062 0
0.78125 53.125 0
1.5625 53.125 0
0.78125 53.9062 0
1.5625 53.9062 0
0 53.9062 0
0.78125 53.9062 0
0 54.6875 0
0.78125 54.6875 0
0.78125 53.9062 0
1.5625 53.9062 0
0.78125 54.6875 0
1.5625 54.6875 0
1.5625 53.125 0
2.34375 53.125 0
1.5625 53.9062 0
2.34375 53.9062 0
2.34375 53.125 0
3.125 53.125 0
2.34375 53.9062 0
3.125 53.9062 0
1.5625 53.9062 0
2.34375 53.9062 0
1.5625 54.6875 0
2.34375 54.6875 0
2.34375 53.9062 0
3.125 53.9062 0
2.34375 54.6875 0
3.125 54.6875 0
0 54.6875 0
0.78125 54.6875 0
0 55.4688 0
0.78125 55.4688 0
0.78125 54.6875 0
1.5625 54.6875 0
0.78125 55.4688 0
1.5625 55.4688 0
0 55.4688 0
0.78125 55.4688 0
0 56.25 0
0.78125 56.25 0
0.78125 55.4688 0
1.5625 55.4688 0
0.78125 56.25 0
1.5625 56.25 0
1.5625 54.6875 0
2.34375 54.6875 0
1.5625 55.4688 0
2.34375 55.4688 0
2.34375 54.6875 0
3.125 54.6875 0
2.34375 55.4688 0
3.125 55.4688 0
1.5625 55.4688 0
2.34375 55.4688 0
1.5625 56.25 0
2.34375 56.25 0
2.34375 55.4688 0
3.125 55.4688 0
2.34375 56.25 0
3.125 56.25 0
3.125 53.125 0
3.90625 53.125 0
3.125 53.9062 0
3.90625 53.9062 0
3.90625 53.125 0
4.6875 53.125 0
3.90625 53.9062 0
4.6875 53.9062 0
3.125 53.9062 0
3.90625 53.9062 0
3.125 54.6875 0
3.90625 54.6875 0
3.90625 53.9062 0
4.6875 53.9062 0
3.90625 54.6875 0
4.6875 54.6875 0
4.6875 53.125 0
5.46875 53.125 0
4.6875 53.9062 0
5.46875 53.9062 0
5.46875 53.125 0
6.25 53.125 0
5.46875 53.9062 0
6.25 53.9062 0
4.6875 53.9062 0
5.46875 53.9062 0
4.6875 54.6875 0
5.46875 54.6875 0
5.46875 53.9062 0
6.25 53.9062 0
5.46875 54.6875 0
6.25 54.6875 0
3.125 54.6875 0
3.90625 54.6875 0
3.125 55.4688 0
3.90625 55.4688 0
3.90625 54.6875 0
4.6875 54.6875 0
3.90625 55.4688 0
4.6875 55.4688 0
3.125 55.4688 0
3.90625 55.4688 0
3.125 56.25 0
3.90625 56.25 0
3.90625 55.4688 0
4.6875 55.4688 0
3.90625 56.25 0
4.6875 56.25 0
4.6875 54.6875 0
5.46875 54.6875 0
4.6875 55.4688 0
5.46875 55.4688 0
5.46875 54.6875 0
6.25 54.6875 0
5.46875 55.4688 0
6.25 55.4688 0
4.6875 55.4688 0
5.46875 55.4688 0
4.6875 56.25 0
5.46875 56.25 0
5.46875 55.4688 0
6.25 55.4688 0
5.46875 56.25 0
6.25 56.25 0
6.25 50 0
7.03125 50 0
6.25 50.7812 0
7.03125 50.7812 0
7.03125 50 0
7.8125 50 0
7.03125 50.7812 0
7.8125 50.7812 0
6.25 50.7812 0
7.03125 50.7812 0
6.25 51.5625 0
7.03125 51.5625 0
7.03125 50.7812 0
7.8125 50.7812 0
7.03125 51.5625 0
7.8125 51.5625 0
7.8125 50 0
8.59375 50 0
7.8125 50.7812 0
8.59375 50.7812 0
8.59375 50 0
9.375 50 0
8.59375 50.7812 0
9.375 50.7812 0
7.8125 50.7812 0
8.59375 50.7812 0
7.8125 51.5625 0
8.59375 51.5625 0
8.59375 50.7812 0
9.375 50.7812 0
8.59375 51.5625 0
9.375 51.5625 0
6.25 51.5625 0
7.03125 51.5625 0
6.25 52.3438 0
7.03125 52.3438 0
7.03125 51.5625 0
7.8125 51.5625 0
7.03125 52.3438 0
7.8125 52.3438 0
6.25 52.3438 0
7.03125 52.3438 0
6.25 53.125 0
7.03125 53.125 0
7.03125 52.3438 0
7.8125 52.3438 0
7.03125 53.125 0
7.8125 53.125 0
7.8125 51.5625 0
8.59375 51.5625 0
7.8125 52.3438 0
8.59375 52.3438 0
8.59375 51.5625 0
9.375 51.5625 0
8.59375 52.3438 0
9.375 52.3438 0
7.8125 52.3438 0
8.59375 52.3438 0
7.8125 53.125 0
8.59375 53.125 0
8.59375 52.3438 0
9.375 52.3438 0
8.59375 53.125 0
9.375 53.125 0
9.375 50 0
10.1562 50 0
9.375 50.7812 0
10.1562 50.7812 0
10.1562 50 0
10.9375 50 0
10.1562 50.7812 0
10.9375 50.7812 0
9.375 50.7812 0
10.1562 50.7812 0
9.375 51.5625 0
10.1562 51.5625 0
10.1562 50.7812 0
10.9375 50.7812 0
10.1562 51.5625 0
10.9375 51.5625 0
10.9375 50 0
11.7188 50 0
10.9375 50.7812 0
11.7188 50.7812 0
11.7188 50 0
12.5 50 0
11.7188 50.7812 0
12.5 50.7812 0
10.9375 50.7812 0
11.7188 50.7812 0
10.9375 51.5625 0
11.7188 51.5625 0
11.7188 50.7812 0
12.5 50.7812 0
11.7188 51.5625 0
12.5 51.5625 0
9.375 51.5625 0
10.1562 51.5625 0
9.375 52.3438 0
10.1562 52.3438 0
10.1562 51.5625 0
10.9375 51.5625 0
10.1562 52.3438 0
10.9375 52.3438 0
9.375 52.3438 0
10.1562 52.3438 0
9.375 53.125 0
10.1562 53.125 0
10.1562 52.3438 0
10.9375 52.3438 0
10.1562 53.125 0
10.9375 53.125 0
10.9375 51.5625 0
11.7188 51.5625 0
10.9375 52.3438 0
11.7188 52.3438 0
11.7188 51.5625 0
12.5 51.5625 0
11.7188 52.3438 0
12.5 52.3438 0
10.9375 52.3438 0
11.7188 52.3438 0
10.9375 53.125 0
11.7188 53.125 0
11.7188 52.3438 0
12.5 52.3438 0
11.7188 53.125 0
12.5 53.125 0
6.25 53.125 0
7.03125 53.125 0
6.25 53.9062 0
7.03125 53.9062 0
7.03125 53.125 0
7.8125 53.125 0
7.03125 53.9062 0
7.8125 53.9062 0
6.25 53.9062 0
7.03125 53.9062 0
6.25 54.6875 0
7.03125 54.6875 0
7.03125 53.9062 0
7.8125 53.9062 0
7.03125 54.6875 0
7.8125 54.6875 0
7.8125 53.125 0
8.59375 53.125 0
7.8125 53.9062 0
8.59375 53.9062 0
8.59375 53.125 0
9.375 53.125 0
8.59375 53.9062 0
9.375 53.9062 0
7.8125 53.9062 0
8.59375 53.9062 0
7.8125 54.6875 0
8.59375 54.6875 0
8.59375 53.9062 0
9.375 53.9062 0
8.59375 54.6875 0
9.375 54.6875 0
6.25 54.6875 0
7.03125 54.6875 0
6.25 55.4688 0
7.03125 55.4688 0
7.03125 54.6875 0
7.8125 54.6875 0
7.03125 55.4688 0
7.8125 55.4688 0
6.25 55.4688 0
7.03125 55.4688 0
6.25 56.25 0
7.03125 56.25 0
7.03125 55.4688 0
7.8125 55.4688 0
7.03125 56.25 0
7.8125 56.25 0
7.8125 54.6875 0
8.59375 54.6875 0
7.8125 55.4688 0
8.59375 55.4688 0
8.59375 54.6875 0
9.375 54.6875 0
8.59375 55.4688 0
9.375 55.4688 0
7.8125 55.4688 0
8.59375 55.4688 0
7.8125 56.25 0
8.59375 56.25 0
8.59375 55.4688 0
9.375 55.4688 0
8.59375 56.25 0
9.375 56.25 0
9.375 53.125 0
10.1562 53.125 0
9.375 53.9062 0
10.1562 53.9062 0
10.1562 53.125 0
10.9375 53.125 0
10.1562 53.9062 0
10.9375 53.9062 0
9.375 53.9062 0
10.1562 53.9062 0
9.375 54.6875 0
10.1562 54.6875 0
10.1562 53.9062 0
10.9375 53.9062 0
10.1562 54.6875 0
10.9375 54.6875 0
10.9375 53.125 0
11.7188 53.125 0
10.9375 53.9062 0
11.7188 53.9062 0
11.7188 53.125 0
12.5 53.125 0
11.7188 53.9062 0
12.5 53.9062 0
10.9375 53.9062 0
11.7188 53.9062 0
10.9375 54.6875 0
11.7188 54.6875 0
11.7188 53.9062 0
12.5 53.9062 0
11.7188 54.6875 0
12.5 54.6875 0
9.375 54.6875 0
10.1562 54.6875 0
9.375 55.4688 0
10.1562 55.4688 0
10.1562 54.6875 0
10.9375 54.6875 0
10.1562 55.4688 0
10.9375 55.4688 0
9.375 55.4688 0
10.1562 55.4688 0
9.375 56.25 0
10.1562 56.25 0
10.1562 55.4688 0
10.9375 55.4688 0
10.1562 56.25 0
10.9375 56.25 0
10.9375 54.6875 0
11.7188 54.6875 0
10.9375 55.4688 0
11.7188 55.4688 0
11.7188 54.6875 0
12.5 54.6875 0
11.7188 55.4688 0
12.5 55.4688 0
10.9375 55.4688 0
11.7188 55.4688 0
10.9375 56.25 0
11.7188 56.25 0
11.7188 55.4688 0
12.5 55.4688 0
11.7188 56.25 0
12.5 56.25 0
0 56.25 0
0.78125 56.25 0
0 57.0312 0
0.78125 57.0312 0
0.78125 56.25 0
1.5625 56.25 0
0.78125 57.0312 0
1.5625 57.0312 0
0 57.0312 0
0.78125 57.0312 0
0 57.8125 0
0.78125 57.8125 0
0.78125 57.0312 0
1.5625 57.0312 0
0.78125 57.8125 0
1.5625 57.8125 0
1.5625 56.25 0
2.34375 56.25 0
1.5625 57.0312 0
2.34375 57.0312 0
2.34375 56.25 0
3.125 56.25 0
2.34375 57.0312 0
3.125 57.0312 0
1.5625 57.0312 0
2.34375 57.0312 0
1.5625 57.8125 0
2.34375 57.8125 0
2.34375 57.0312 0
3.125 57.0312 0
2.34375 57.8125 0
3.125 57.8125 0
0 57.8125 0
0.78125 57.8125 0
0 58.5938 0
0.78125 58.5938 0
0.78125 57.8125 0
1.5625 57.8125 0
0.78125 58.5938 0
1.5625 58.5938 0
0 58.5938 0
0.78125 58.5938 0
0 59.375 0
0.78125 59.375 0
0.78125 58.5938 0
1.5625 58.5938 0
0.78125 59.375 0
1.5625 59.375 0
1.5625 57.8125 0
2.34375 57.8125 0
1.5625 58.5938 0
2.34375 58.5938 0
2.34375 57.8125 0
3.125 57.8125 0
2.34375 58.5938 0
3.125 58.5938 0
1.5625 58.5938 0
2.34375 58.5938 0
1.5625 59.375 0
2.34375 59.375 0
2.34375 58.5938 0
3.125 58.5938 0
2.34375 59.375 0
3.125 59.375 0
3.125 56.25 0
3.90625 56.25 0
3.125 57.0312 0
3.90625 57.0312 0
3.90625 56.25 0
4.6875 56.25 0
3.90625 57.0312 0
4.6875 57.0312 0
3.125 57.0312 0
3.90625 57.0312 0
3.125 57.8125 0
3.90625 57.8125 0
3.90625 57.0312 0
4.6875 57.0312 0
3.90625 57.8125 0
4.6875 57.8125 0
4.6875 56.25 0
5.46875 56.25 0
4.6875 57.0312 0
5.46875 57.0312 0
[...]
POINT_DATA 32768
SCALARS n double 1
LOOKUP_TABLE default
1 1 1 1 1 1 1 1 1 1 1 1 1 1 1 1 1 1 1 1 1 1 1 1 1 1 1 1 1 1 1 1 1 1 1 1 1 1 1 1 1 1 1 1 1 1 1 1 1 1 1 1 1 1 1 1 1 1 1 1 1 1 1 1 1 1 1 1 1 1 1 1 1 1 1 1 1 1 1 1 1 1 1 1 1 1 1 1 1 1 1 1 1 1 1 1 1 1 1 1 1 1 1 1 1 1 1 1 1 1 1 1 1 1 1 1 1 1 1 1 1 1 1 1 1 1 1 1 1 1 1 1 1 1 1 1 1 1 1 1 1 1 1 1 1 1 1 1 1 1 1 1 1 1 1 1 1 1 1 1 1 1 1 1 1 1 1 1 1 1 1 1 1 1 1 1 1 1 1 1 1 1 1 1 1 1 1 1 1 1 1 1 1 1 1 1 1 1 1 1 1 1 1 1 1 1 1 1 1 1 1 1 1 1 1 1 1 1 1 1 1 1 1 1 1 1 1 1 1 1 1 1 1 1 1 1 1 1 1 1 1 1 1 1 1 1 1 1 1 1 1 1 1 1 1 1 1 1 1 1 1 1 1 1 1 1 1 1 1 1 1 1 1 1 1 1 1 1 1 1 1 1 1 1 1 1 1 1 1 1 1 1 1 1 1 1 1 1 1 1 1 1 1 1 1 1 1 1 1 1 1 1 1 1 1 1 1 1 1 1 1 1 1 1 1 1 1 1 1 1 1 1 1 1 1 1 1 1 1 1 1 1 1 1 1 1 1 1 1 1 1 1 1 1 1 1 1 1 1 1 1 1 1 1 1 1 1 1 1 1 1 1 1 1 1 1 1 1 1 1 1 1 1 1 1 1 1 1 1 1 1 1 1 1 1 1 1 1 1 1 1 1 1 1 1 1 1 1 1 1 1 1 1 1 1 1 1 1 1 1 1 1 1 1 1 1 1 1 1 1 1 1 1 1 1 1 1 1 1 1 1 1 1 1 1 1 1 1 1 1 1 1 1 1 1 1 1 1 1 1 1 1 1 1 1 1 1 1 1 1 1 1 1 1 1 1 1 1 1 1 1 1 1 1 1 1 1 1 1 1 1 1 1 1 1 1 1 1 1 1 1 1 1 0.999999 1 1 1 0.999999 1 0.999999 0.999999 0.999999 1 1 1 1 1 1 1 1 1 1 1 1 1 1 1 1 1 1 1 1 1 1 1 1 1 1 1 1 1 1 1 1 1 1 0.999999 0.999999 1 1 0.999999 0.999999 0.999999 0.999999 0.999999 0.999999 0.999999 0.999999 0.999999 0.999999 1 1 0.999999 0.999999 1 1 0.999999 0.999999 0.999999 0.999999 0.999999 0.999999 0.999999 0.999999 0.999999 0.999999 1 1 1 1 1 1 1 1 1 1 1 1 1 1 1 1 1 1 1 1 1 1 1 1 1 1 1 1 1 1 1 1 1 1 0.999999 0.999999 1 1 0.999999 0.999999 0.999999 0.999999 0.999999 0.999999 0.999999 0.999999 0.999999 0.999999 1 1 0.999999 0.999999 1 1 0.999999 0.999999 0.999999 0.999999 0.999999 0.999999 0.999999 0.999999 0.999999 0.999999 0.999999 0.999999 0.999998 0.999998 0.999999 0.999999 0.999998 0.999998 0.999998 0.999998 0.999997 0.999997 0.999998 0.999998 0.999997 0.999997 0.999999 0.999999 0.999998 0.999998 0.999999 0.999999 0.999998 0.999998 0.999998 0.999998 0.999997 0.999997 0.999998 0.999998 0.999997 0.999997 0.999997 0.999997 0.999995 0.999995 0.999997 0.999997 0.999995 0.999994 0.999995 0.999995 0.999991 0.999991 0.999995 0.999994 0.999991 0.999991 0.999997 0.999997 0.999994 0.999994 0.999997 0.999997 0.999994 0.999994 0.999994 0.999994 0.999991 0.99999 0.999994 0.999994 0.99999 0.99999 0.999999 0.999999 0.999998 0.999998 0.999999 0.999999 0.999998 0.999998 0.999998 0.999998 0.999997 0.999997 0.999998 0.999998 0.999997 0.999996 0.999999 0.999999 0.999998 0.999998 0.999999 0.999999 0.999998 0.999998 0.999998 0.999998 0.999996 0.999996 0.999998 0.999998 0.999996 0.999996 0.999997 0.999997 0.999994 0.999994 0.999997 0.999996 0.999994 0.999994 0.999994 0.999994 0.99999 0.99999 0.999994 0.999994 0.99999 0.99999 0.999996 0.999996 0.999994 0.999994 0.999996 0.999996 0.999994 0.999993 0.999994 0.999994 0.99999 0.999989 0.999994 0.999993 0.999989 0.999989 1 1 1 1 1 1 1 1 1 1 1 1 1 1 1 0.999999 1 1 1 1 1 1 1 1 1 1 0.999999 0.999999 1 1 0.999999 0.999999 1 1 0.999999 0.999999 1 0.999999 0.999999 0.999999 0.999999 0.999999 0.999999 0.999999 0.999999 0.999999 0.999999 0.999998 0.999999 0.999999 0.999999 0.999999 0.999999 0.999999 0.999999 0.999999 0.999999 0.999999 0.999998 0.999998 0.999999 0.999999 0.999998 0.999998 1 1 1 0.999999 1 1 0.999999 0.999999 1 0.999999 0.999999 0.999999 0.999999 0.999999 0.999999 0.999999 1 0.999999 0.999999 0.999999 0.999999 0.999999 0.999999 0.999999 0.999999 0.999999 0.999999 0.999998 0.999999 0.999999 0.999998 0.999998 0.999999 0.999999 0.999999 0.999998 0.999999 0.999999 0.999998 0.999998 0.999999 0.999998 0.999998 0.999997 0.999998 0.999998 0.999997 0.999997 0.999999 0.999998 0.999998 0.999998 0.999998 0.999998 0.999998 0.999997 0.999998 0.999998 0.999997 0.999996 0.999998 0.999997 0.999996 0.999995 0.999999 0.999999 0.999998 0.999998 0.999999 0.999998 0.999998 0.999997 0.999998 0.999998 0.999996 0.999996 0.999998 0.999997 0.999996 0.999996 0.999998 0.999998 0.999997 0.999997 0.999998 0.999998 0.999997 0.999997 0.999997 0.999997 0.999996 0.999995 0.999997 0.999997 0.999995 0.999994 0.999996 0.999996 0.999993 0.999993 0.999996 0.999996 0.999993 0.999992 0.999993 0.999993 0.999989 0.999988 0.999993 0.999992 0.999988 0.999987 0.999996 0.999995 0.999992 0.999992 0.999995 0.999994 0.999992 0.999991 0.999992 0.999992 0.999987 0.999986 0.999992 0.999991 0.999986 0.999984 0.999998 0.999997 0.999997 0.999996 0.999997 0.999997 0.999996 0.999995 0.999997 0.999996 0.999994 0.999993 0.999996 0.999995 0.999993 0.999992 0.999997 0.999996 0.999995 0.999994 0.999996 0.999995 0.999994 0.999992 0.999995 0.999994 0.999992 0.99999 0.999994 0.999992 0.99999 0.999987 0.999994 0.999993 0.999991 0.999989 0.999993 0.999992 0.999989 0.999987 0.999991 0.999989 0.999984 0.999982 0.999989 0.999987 0.999982 0.999979 0.999992 0.99999 0.999987 0.999984 0.99999 0.999987 0.999984 0.99998 0.999987 0.999984 0.999979 0.999974 0.999984 0.99998 0.999974 0.999968 1 1 1 1 1 1 1 1 1 1 1 1 1 1 1 1 1 1 1 1 1 1 1 1 1 1 1 1 1 1 1 1 1 1 1 1 1 1 1 1 1 1 1 1 1 1 1 1 1 1 1 1 1 1 1 1 1 1 1 1 1 1 1 0.999999 1 1 1 1 1 1 1 1 1 1 1 1 1 1 1 1 1 1 1 1 1 1 1 0.999999 1 1 1 0.999999 1 0.999999 0.999999 0.999999 1 1 1 0.999999 1 1 0.999999 0.999999 1 0.999999 0.999999 0.999999 0.999999 0.999999 0.999999 0.999999 1 0.999999 0.999999 0.999999 0.999999 0.999999 0.999999 0.999999 0.999999 0.999999 0.999999 0.999999 0.999999 0.999999 0.999999 0.999998 1 1 1 1 1 1 1 1 1 1 1 1 1 1 1 0.999999 1 1 1 0.999999 1 0.999999 0.999999 0.999999 1 0.999999 0.999999 0.999999 0.999999 0.999999 0.999999 0.999999 1 1 0.999999 0.999999 1 0.999999 0.999999 0.999999 0.999999 0.999999 0.999999 0.999999 0.999999 0.999999 0.999999 0.999998 0.999999 0.999999 0.999999 0.999999 0.999999 0.999999 0.999999 0.999998 0.999999 0.999999 0.999998 0.999998 0.999999 0.999998 0.999998 0.999997 0.999999 0.999999 0.999999 0.999999 0.999999 0.999999 0.999999 0.999998 0.999999 0.999999 0.999999 0.999998 0.999999 0.999998 0.999998 0.999997 0.999999 0.999999 0.999998 0.999998 0.999999 0.999998 0.999998 0.999997 0.999998 0.999998 0.999997 0.999996 0.999998 0.999997 0.999996 0.999995 0.999999 0.999998 0.999998 0.999997 0.999998 0.999997 0.999997 0.999996 0.999998 0.999997 0.999997 0.999996 0.999997 0.999996 0.999996 0.999994 0.999997 0.999996 0.999996 0.999995 0.999996 0.999995 0.999995 0.999992 0.999996 0.999995 0.999994 0.999992 0.999995 0.999992 0.999992 0.999988 1 1 0.999999 0.999999 1 0.999999 0.999999 0.999999 0.999999 0.999999 0.999999 0.999999 0.999999 0.999999 0.999999 0.999998 0.999999 0.999999 0.999999 0.999999 0.999999 0.999999 0.999999 0.999998 0.999999 0.999999 0.999998 0.999998 0.999999 0.999998 0.999998 0.999997 0.999999 0.999999 0.999999 0.999998 0.999999 0.999998 0.999998 0.999997 0.999999 0.999998 0.999998 0.999997 0.999998 0.999997 0.999997 0.999996 0.999998 0.999998 0.999997 0.999997 0.999998 0.999997 0.999997 0.999996 0.999997 0.999997 0.999996 0.999995 0.999997 0.999996 0.999995 0.999993 0.999999 0.999999 0.999998 0.999998 0.999999 0.999998 0.999998 0.999997 0.999998 0.999998 0.999997 0.999996 0.999998 0.999997 0.999996 0.999995 0.999998 0.999997 0.999997 0.999996 0.999997 0.999997 0.999996 0.999995 0.999997 0.999996 0.999995 0.999994 0.999996 0.999995 0.999994 0.999992 0.999997 0.999996 0.999996 0.999994 0.999996 0.999995 0.999994 0.999992 0.999996 0.999994 0.999993 0.999991 0.999994 0.999992 0.999991 0.999987 0.999995 0.999994 0.999992 0.99999 0.999994 0.999992 0.99999 0.999987 0.999992 0.99999 0.999987 0.999983 0.99999 0.999987 0.999983 0.999978 0.999998 0.999997 0.999997 0.999996 0.999997 0.999996 0.999996 0.999994 0.999997 0.999996 0.999995 0.999993 0.999996 0.999994 0.999993 0.999991 0.999996 0.999995 0.999994 0.999992 0.999995 0.999993 0.999992 0.999989 0.999994 0.999992 0.999991 0.999987 0.999992 0.999989 0.999987 0.999982 0.999995 0.999993 0.999992 0.999989 0.999993 0.999991 0.999989 0.999985 0.999992 0.999989 0.999988 0.999984 0.999989 0.999985 0.999984 0.999977 0.999991 0.999987 0.999985 0.99998 0.999987 0.999982 0.99998 0.999973 0.999985 0.99998 0.999977 0.999969 0.99998 0.999973 0.999969 0.999957 0.999993 0.999991 0.999989 0.999985 0.999991 0.999987 0.999985 0.99998 0.999989 0.999985 0.999982 0.999976 0.999985 0.99998 0.999976 0.999968 0.999987 0.999983 0.99998 0.999974 0.999983 0.999978 0.999974 0.999965 0.99998 0.999974 0.999968 0.999958 0.999974 0.999965 0.999958 0.999945 0.999982 0.999976 0.999973 0.999963 0.999976 0.999968 0.999963 0.99995 0.999973 0.999963 0.999957 0.999942 0.999963 0.99995 0.999942 0.999921 0.999968 0.999958 0.99995 0.999933 0.999958 0.999945 0.999933 0.999912 0.99995 0.999933 0.999921 0.999894 0.999933 0.999912 0.999894 0.99986 0.999999 0.999999 0.999999 0.999998 0.999999 0.999998 0.999998 0.999998 0.999999 0.999998 0.999998 0.999997 0.999998 0.999998 0.999997 0.999996 0.999998 0.999998 0.999998 0.999997 0.999998 0.999997 0.999997 0.999995 0.999998 0.999997 0.999996 0.999995 0.999997 0.999995 0.999995 0.999993 0.999998 0.999997 0.999997 0.999996 0.999997 0.999996 0.999996 0.999994 0.999997 0.999996 0.999995 0.999993 0.999996 0.999994 0.999993 0.999991 0.999996 0.999995 0.999994 0.999992 0.999995 0.999993 0.999992 0.999989 0.999994 0.999992 0.999991 0.999988 0.999992 0.999989 0.999988 0.999983 0.999997 0.999996 0.999995 0.999993 0.999996 0.999994 0.999993 0.999991 0.999995 0.999993 0.999993 0.99999 0.999993 0.999991 0.99999 0.999986 0.999994 0.999992 0.999991 0.999987 0.999992 0.999988 0.999987 0.999982 0.999991 0.999987 0.999986 0.99998 0.999987 0.999982 0.99998 0.999972 0.999993 0.99999 0.999989 0.999985 0.99999 0.999986 0.999985 0.999978 0.999989 0.999985 0.999983 0.999976 0.999985 0.999978 0.999976 0.999967 0.999986 0.99998 0.999978 0.99997 0.99998 0.999972 0.99997 0.999957 0.999978 0.99997 0.999967 0.999954 0.99997 0.999957 0.999954 0.999935 0.999995 0.999993 0.999992 0.99999 0.999993 0.999991 0.99999 0.999986 0.999992 0.99999 0.999987 0.999984 0.99999 0.999986 0.999984 0.999978 0.999991 0.999988 0.999986 0.999981 0.999988 0.999983 0.999981 0.999974 0.999986 0.999981 0.999978 0.999971 0.999981 0.999974 0.999971 0.99996 0.999987 0.999984 0.99998 0.999974 0.999984 0.999978 0.999974 0.999966 0.99998 0.999974 0.999968 0.999959 0.999974 0.999966 0.999959 0.999947 0.999978 0.999971 0.999966 0.999955 0.999971 0.99996 0.999955 0.999938 0.999966 0.999955 0.999947 0.999929 0.999955 0.999938 0.999929 0.999904 0.999983 0.999976 0.999974 0.999964 0.999976 0.999967 0.999964 0.99995 0.999974 0.999964 0.99996 0.999945 0.999964 0.99995 0.999945 0.999923 0.999967 0.999954 0.99995 0.999929 0.999954 0.999935 0.999929 0.9999 0.99995 0.999929 0.999923 0.999892 0.999929 0.9999 0.999892 0.999848 0.99996 0.999945 0.999938 0.999915 0.999945 0.999923 0.999915 0.999881 0.999938 0.999915 0.999904 0.999868 0.999915 0.999881 0.999868 0.999818 0.999923 0.999892 0.999881 0.999834 0.999892 0.999848 0.999834 0.999767 0.999881 0.999834 0.999818 0.999746 0.999834 0.999767 0.999746 0.999643 0.999988 0.999984 0.999982 0.999975 0.999984 0.999977 0.999975 0.999965 0.999982 0.999975 0.999972 0.999961 0.999975 0.999965 0.999961 0.999946 0.999977 0.999969 0.999965 0.999951 0.999969 0.999957 0.999951 0.999933 0.999965 0.999951 0.999946 0.999925 0.999951 0.999933 0.999925 0.999896 0.999972 0.999961 0.999957 0.99994 0.999961 0.999946 0.99994 0.999917 0.999957 0.99994 0.999935 0.999909 0.99994 0.999917 0.999909 0.999872 0.999946 0.999925 0.999917 0.999884 0.999925 0.999896 0.999884 0.999839 0.999917 0.999884 0.999872 0.999821 0.999884 0.999839 0.999821 0.999751 0.999957 0.999942 0.999933 0.999909 0.999942 0.999921 0.999909 0.999876 0.999933 0.999909 0.999896 0.999857 0.999909 0.999876 0.999857 0.999806 0.999921 0.999894 0.999876 0.999833 0.999894 0.99986 0.999833 0.999777 0.999876 0.999833 0.999806 0.999737 0.999833 0.999777 0.999737 0.999647 0.999896 0.999857 0.999839 0.999778 0.999857 0.999806 0.999778 0.999696 0.999839 0.999778 0.999751 0.999655 0.999778 0.999696 0.999655 0.999525 0.999806 0.999737 0.999696 0.999586 0.999737 0.999647 0.999586 0.999442 0.999696 0.999586 0.999525 0.999351 0.999586 0.999442 0.999351 0.99912 0.999935 0.999909 0.9999 0.99986 0.999909 0.999872 0.99986 0.999803 0.9999 0.99986 0.999848 0.999785 0.99986 0.999803 0.999785 0.999698 0.999872 0.999821 0.999803 0.999724 0.999821 0.999751 0.999724 0.999615 0.999803 0.999724 0.999698 0.999576 0.999724 0.999615 0.999576 0.999406 0.999848 0.999785 0.999767 0.999672 0.999785 0.999698 0.999672 0.999538 0.999767 0.999672 0.999643 0.999498 0.999672 0.999538 0.999498 0.999292 0.999698 0.999576 0.999538 0.999349 0.999576 0.999406 0.999349 0.999087 0.999538 0.999349 0.999292 0.999003 0.999349 0.999087 0.999003 0.998598 0.999751 0.999655 0.999615 0.999465 0.999655 0.999525 0.999465 0.999261 0.999615 0.999465 0.999406 0.999173 0.999465 0.999261 0.999173 0.998853 0.999525 0.999351 0.999261 0.998986 0.999351 0.99912 0.998986 0.998618 0.999261 0.998986 0.998853 0.998418 0.998986 0.998618 0.998418 0.997835 0.999406 0.999173 0.999087 0.998723 0.999173 0.998853 0.998723 0.998223 0.999087 0.998723 0.998598 0.998035 0.998723 0.998223 0.998035 0.997256 0.998853 0.998418 0.998223 0.997541 0.998418 0.997835 0.997541 0.996619 0.998223 0.997541 0.997256 0.996188 0.997541 0.996619 0.996188 0.994738 0.999991 0.999991 0.999984 0.999984 0.999991 0.999991 0.999984 0.999984 0.999984 0.999984 0.999972 0.999972 0.999984 0.999984 0.999972 0.999972 0.999991 0.99999 0.999984 0.999983 0.99999 0.99999 0.999983 0.999983 0.999984 0.999983 0.999972 0.999971 0.999983 0.999983 0.999971 0.999971 0.999972 0.999972 0.999952 0.999952 0.999972 0.999972 0.999952 0.999951 0.999952 0.999952 0.999917 0.999916 0.999952 0.999951 0.999916 0.999916 0.999972 0.999971 0.999951 0.999951 0.999971 0.999971 0.999951 0.99995 0.999951 0.999951 0.999916 0.999915 0.999951 0.99995 0.999915 0.999914 0.99999 0.99999 0.999983 0.999983 0.99999 0.99999 0.999983 0.999982 0.999983 0.999983 0.999971 0.99997 0.999983 0.999982 0.99997 0.99997 0.99999 0.999989 0.999982 0.999982 0.999989 0.999989 0.999982 0.999981 0.999982 0.999982 0.99997 0.999969 0.999982 0.999981 0.999969 0.999967 0.999971 0.99997 0.99995 0.999949 0.99997 0.99997 0.999949 0.999948 0.99995 0.999949 0.999914 0.999912 0.999949 0.999948 0.999912 0.99991 0.99997 0.999969 0.999948 0.999946 0.999969 0.999967 0.999946 0.999944 0.999948 0.999946 0.99991 0.999907 0.999946 0.999944 0.999907 0.999903 0.999917 0.999916 0.999856 0.999856 0.999916 0.999916 0.999856 0.999855 0.999856 0.999856 0.999752 0.999752 0.999856 0.999855 0.999752 0.99975 0.999916 0.999915 0.999855 0.999854 0.999915 0.999914 0.999854 0.999852 0.999855 0.999854 0.99975 0.999748 0.999854 0.999852 0.999748 0.999744 0.999752 0.999752 0.999572 0.999572 0.999752 0.99975 0.999572 0.999569 0.999572 0.999572 0.999262 0.999261 0.999572 0.999569 0.999261 0.999257 0.99975 0.999748 0.999569 0.999565 0.999748 0.999744 0.999565 0.999559 0.999569 0.999565 0.999257 0.99925 0.999565 0.999559 0.99925 0.99924 0.999914 0.999912 0.999852 0.999849 0.999912 0.99991 0.999849 0.999845 0.999852 0.999849 0.999744 0.999739 0.999849 0.999845 0.999739 0.999733 0.99991 0.999907 0.999845 0.99984 0.999907 0.999903 0.99984 0.999834 0.999845 0.99984 0.999733 0.999725 0.99984 0.999834 0.999725 0.999714 0.999744 0.999739 0.999559 0.999551 0.999739 0.999733 0.999551 0.99954 0.999559 0.999551 0.99924 0.999226 0.999551 0.99954 0.999226 0.999208 0.999733 0.999725 0.99954 0.999526 0.999725 0.999714 0.999526 0.999509 0.99954 0.999526 0.999208 0.999185 0.999526 0.999509 0.999185 0.999155 0.999989 0.999988 0.999981 0.99998 0.999988 0.999987 0.99998 0.999978 0.999981 0.99998 0.999967 0.999965 0.99998 0.999978 0.999965 0.999963 0.999987 0.999986 0.999978 0.999976 0.999986 0.999984 0.999976 0.999973 0.999978 0.999976 0.999963 0.99996 0.999976 0.999973 0.99996 0.999955 0.999967 0.999965 0.999944 0.999941 0.999965 0.999963 0.999941 0.999937 0.999944 0.999941 0.999903 0.999898 0.999941 0.999937 0.999898 0.999892 0.999963 0.99996 0.999937 0.999931 0.99996 0.999955 0.999931 0.999924 0.999937 0.999931 0.999892 0.999883 0.999931 0.999924 0.999883 0.999872 0.999984 0.999982 0.999973 0.99997 0.999982 0.999979 0.99997 0.999965 0.999973 0.99997 0.999955 0.999949 0.99997 0.999965 0.999949 0.999941 0.999979 0.999974 0.999965 0.999958 0.999974 0.999968 0.999958 0.999948 0.999965 0.999958 0.999941 0.999931 0.999958 0.999948 0.999931 0.999916 0.999955 0.999949 0.999924 0.999915 0.999949 0.999941 0.999915 0.999902 0.999924 0.999915 0.999872 0.999857 0.999915 0.999902 0.999857 0.999837 0.999941 0.999931 0.999902 0.999885 0.999931 0.999916 0.999885 0.999862 0.999902 0.999885 0.999837 0.99981 0.999885 0.999862 0.99981 0.999773 0.999903 0.999898 0.999834 0.999825 0.999898 0.999892 0.999825 0.999815 0.999834 0.999825 0.999714 0.9997 0.999825 0.999815 0.9997 0.999683 0.999892 0.999883 0.999815 0.999801 0.999883 0.999872 0.999801 0.999783 0.999815 0.999801 0.999683 0.99966 0.999801 0.999783 0.99966 0.99963 0.999714 0.9997 0.999509 0.999486 0.9997 0.999683 0.999486 0.999456 0.999509 0.999486 0.999155 0.999117 0.999486 0.999456 0.999117 0.999068 0.999683 0.99966 0.999456 0.999419 0.99966 0.99963 0.999419 0.999371 0.999456 0.999419 0.999068 0.999006 0.999419 0.999371 0.999006 0.998927 0.999872 0.999857 0.999783 0.999759 0.999857 0.999837 0.999759 0.999727 0.999783 0.999759 0.99963 0.999592 0.999759 0.999727 0.999592 0.99954 0.999837 0.99981 0.999727 0.999684 0.99981 0.999773 0.999684 0.999626 0.999727 0.999684 0.99954 0.999472 0.999684 0.999626 0.999472 0.999381 0.99963 0.999592 0.999371 0.999308 0.999592 0.99954 0.999308 0.999225 0.999371 0.999308 0.998927 0.998824 0.999308 0.999225 0.998824 0.99869 0.99954 0.999472 0.999225 0.999116 0.999472 0.999381 0.999116 0.99897 0.999225 0.999116 0.99869 0.998514 0.999116 0.99897 0.998514 0.998281 0.999262 0.999261 0.998728 0.998726 0.999261 0.999257 0.998726 0.998719 0.998728 0.998726 0.997808 0.997804 0.998726 0.998719 0.997804 0.997792 0.999257 0.99925 0.998719 0.998707 0.99925 0.99924 0.998707 0.99869 0.998719 0.998707 0.997792 0.997772 0.998707 0.99869 0.997772 0.997743 0.997808 0.997804 0.996223 0.996217 0.997804 0.997792 0.996217 0.996197 0.996223 0.996217 0.9935 0.993489 0.996217 0.996197 0.993489 0.993456 0.997792 0.997772 0.996197 0.996163 0.997772 0.997743 0.996163 0.996114 0.996197 0.996163 0.993456 0.993398 0.996163 0.996114 0.993398 0.993315 0.99924 0.999226 0.99869 0.998667 0.999226 0.999208 0.998667 0.998636 0.99869 0.998667 0.997743 0.997704 0.998667 0.998636 0.997704 0.997652 0.999208 0.999185 0.998636 0.998597 0.999185 0.999155 0.998597 0.998547 0.998636 0.998597 0.997652 0.997586 0.998597 0.998547 0.997586 0.997501 0.997743 0.997704 0.996114 0.996047 0.997704 0.997652 0.996047 0.99596 0.996114 0.996047 0.993315 0.993201 0.996047 0.99596 0.993201 0.993054 0.997652 0.997586 0.99596 0.995847 0.997586 0.997501 0.995847 0.995706 0.99596 0.995847 0.993054 0.992865 0.995847 0.995706 0.992865 0.992626 0.9935 0.993489 0.988833 0.988814 0.993489 0.993456 0.988814 0.988758 0.988833 0.988814 0.980874 0.980842 0.988814 0.988758 0.980842 0.980747 0.993456 0.993398 0.988758 0.988661 0.993398 0.993315 0.988661 0.98852 0.988758 0.988661 0.980747 0.980584 0.988661 0.98852 0.980584 0.980347 0.980874 0.980842 0.967411 0.967358 0.980842 0.980747 0.967358 0.967199 0.967411 0.967358 0.944958 0.944872 0.967358 0.967199 0.944872 0.944611 0.980747 0.980584 0.967199 0.966928 0.980584 0.980347 0.966928 0.966533 0.967199 0.966928 0.944611 0.944167 0.966928 0.966533 0.944167 0.943522 0.993315 0.993201 0.98852 0.988329 0.993201 0.993054 0.988329 0.98808 0.98852 0.988329 0.980347 0.980026 0.988329 0.98808 0.980026 0.979609 0.993054 0.992865 0.98808 0.987762 0.992865 0.992626 0.987762 0.987362 0.98808 0.987762 0.979609 0.979078 0.987762 0.987362 0.979078 0.978411 0.980347 0.980026 0.966533 0.966 0.980026 0.979609 0.966 0.965309 0.966533 0.966 0.943522 0.942652 0.966 0.965309 0.942652 0.941526 0.979609 0.979078 0.965309 0.964431 0.979078 0.978411 0.964431 0.96333 0.965309 0.964431 0.941526 0.940099 0.964431 0.96333 0.940099 0.938316 0.999155 0.999117 0.99